Title: monte carlo simulation plot
Date: Fri Oct  6 15:46:24  2017
Plotname: monte_carlo
Flags: real
No. Variables: 101
No. Points: 31
Variables:
	0	voltage_sweep	voltage
	1	output_current_0	notype
	2	output_current_1	notype
	3	output_current_2	notype
	4	output_current_3	notype
	5	output_current_4	notype
	6	output_current_5	notype
	7	output_current_6	notype
	8	output_current_7	notype
	9	output_current_8	notype
	10	output_current_9	notype
	11	output_current_10	notype
	12	output_current_11	notype
	13	output_current_12	notype
	14	output_current_13	notype
	15	output_current_14	notype
	16	output_current_15	notype
	17	output_current_16	notype
	18	output_current_17	notype
	19	output_current_18	notype
	20	output_current_19	notype
	21	output_current_20	notype
	22	output_current_21	notype
	23	output_current_22	notype
	24	output_current_23	notype
	25	output_current_24	notype
	26	output_current_25	notype
	27	output_current_26	notype
	28	output_current_27	notype
	29	output_current_28	notype
	30	output_current_29	notype
	31	output_current_30	notype
	32	output_current_31	notype
	33	output_current_32	notype
	34	output_current_33	notype
	35	output_current_34	notype
	36	output_current_35	notype
	37	output_current_36	notype
	38	output_current_37	notype
	39	output_current_38	notype
	40	output_current_39	notype
	41	output_current_40	notype
	42	output_current_41	notype
	43	output_current_42	notype
	44	output_current_43	notype
	45	output_current_44	notype
	46	output_current_45	notype
	47	output_current_46	notype
	48	output_current_47	notype
	49	output_current_48	notype
	50	output_current_49	notype
	51	output_current_50	notype
	52	output_current_51	notype
	53	output_current_52	notype
	54	output_current_53	notype
	55	output_current_54	notype
	56	output_current_55	notype
	57	output_current_56	notype
	58	output_current_57	notype
	59	output_current_58	notype
	60	output_current_59	notype
	61	output_current_60	notype
	62	output_current_61	notype
	63	output_current_62	notype
	64	output_current_63	notype
	65	output_current_64	notype
	66	output_current_65	notype
	67	output_current_66	notype
	68	output_current_67	notype
	69	output_current_68	notype
	70	output_current_69	notype
	71	output_current_70	notype
	72	output_current_71	notype
	73	output_current_72	notype
	74	output_current_73	notype
	75	output_current_74	notype
	76	output_current_75	notype
	77	output_current_76	notype
	78	output_current_77	notype
	79	output_current_78	notype
	80	output_current_79	notype
	81	output_current_80	notype
	82	output_current_81	notype
	83	output_current_82	notype
	84	output_current_83	notype
	85	output_current_84	notype
	86	output_current_85	notype
	87	output_current_86	notype
	88	output_current_87	notype
	89	output_current_88	notype
	90	output_current_89	notype
	91	output_current_90	notype
	92	output_current_91	notype
	93	output_current_92	notype
	94	output_current_93	notype
	95	output_current_94	notype
	96	output_current_95	notype
	97	output_current_96	notype
	98	output_current_97	notype
	99	output_current_98	notype
	100	output_current_99	notype
Values:
 0	0.000000000000000e+00
	-3.621843592449108e-15
	-2.230363321271055e-15
	-4.696357725131489e-15
	-3.634227954418379e-15
	-2.445765227733044e-15
	-3.432747404078812e-15
	-1.860108608005260e-14
	-2.363152777775774e-15
	-1.076697381100731e-15
	-2.421304036885832e-15
	-3.368083143762474e-15
	1.275231521090655e-14
	-3.644616888566343e-15
	1.525192651619705e-14
	-4.629446171671112e-15
	-2.539182611777197e-15
	-7.435087141708165e-15
	-3.557997633586589e-15
	-3.746724052474457e-15
	8.949940291247756e-15
	-5.757386292238992e-15
	-1.116486364687909e-15
	1.282797148521111e-14
	-3.554004107606672e-15
	-2.484539743813546e-15
	1.263619123528815e-14
	-1.110823532480777e-15
	-2.033763304308002e-14
	1.376588991626134e-14
	-2.333888901527589e-15
	-2.172738106084797e-14
	-3.523481943799436e-15
	-2.492743603225394e-15
	-1.102027403798646e-15
	-2.212098572347249e-15
	-2.361647557737718e-15
	-2.417781452166521e-15
	-1.878445009940042e-14
	-1.162978767324460e-15
	-3.442907820536373e-15
	-4.684217909709266e-15
	-4.590932834007204e-15
	1.389666095296004e-14
	9.004019407443595e-15
	-2.427706206496446e-15
	-2.367636814327098e-15
	-1.145931132044324e-15
	-1.926988063428478e-14
	1.313637949160616e-14
	-1.174813233772386e-15
	-2.468010005637286e-15
	1.156200983809781e-14
	-3.648561672651122e-15
	-2.205280512528730e-15
	-2.450984262613813e-15
	-2.378483912692521e-15
	-6.107395742521622e-15
	-2.210022766735657e-15
	1.262212462634688e-14
	-1.131567962089891e-15
	-2.427145481465054e-15
	-8.183681893919775e-15
	1.380410046943568e-14
	1.193019440381531e-14
	-3.573625512122390e-15
	-1.161431836337974e-15
	-3.332183093355764e-15
	-2.160873771589025e-15
	-2.444785201519666e-15
	-1.184201630923807e-15
	-2.275436794040106e-15
	-2.141340610498806e-15
	-9.396122404092076e-15
	1.200354696681562e-14
	-1.160781640165648e-15
	-2.105875750766198e-15
	-6.047847653200849e-15
	-4.152322135008950e-14
	-2.077200575370426e-14
	-2.151295804135440e-14
	1.401805693586650e-14
	-2.464738711243730e-15
	-2.335037173842798e-15
	7.800449871398340e-15
	-3.247972507127191e-15
	-2.200768330807747e-15
	-1.185831111364162e-15
	1.164672645838675e-14
	-3.315957641723984e-15
	-2.456549305248751e-15
	-2.173444663708706e-15
	-2.058913035002907e-14
	-2.447447710074291e-15
	-1.203907547840289e-15
	1.331833520205308e-14
	-1.014406784583630e-15
	-4.756411337216756e-15
	-1.852462718322249e-14
	-3.302229216735565e-15
	1.287864508040887e-14

 1	1.000000000000000e-01
	2.583027737096868e+01
	2.608349352600844e+01
	2.425986689418303e+01
	2.495441512261545e+01
	2.565432648957362e+01
	2.492644515547750e+01
	2.576920147515076e+01
	2.471701290471340e+01
	2.673603214815560e+01
	2.649112997698697e+01
	2.778133253834191e+01
	2.523795835174338e+01
	2.643534083198672e+01
	2.538311585928264e+01
	2.451968396455211e+01
	2.776128901312705e+01
	2.542360104409043e+01
	2.416239656502906e+01
	2.473320374581332e+01
	2.340968585160339e+01
	2.697875571609671e+01
	2.454421067165631e+01
	2.711148018038991e+01
	2.522894319789714e+01
	2.487680182952449e+01
	2.666453956104894e+01
	2.655890371414145e+01
	2.614289940381522e+01
	2.703061263005357e+01
	2.541912463233978e+01
	2.509989479379898e+01
	2.476676994323691e+01
	2.567810096258692e+01
	2.538248099199266e+01
	2.706538416100877e+01
	2.541196789569712e+01
	2.639477700547179e+01
	2.591382808614891e+01
	2.607150648476208e+01
	2.622127926282237e+01
	2.856118767740202e+01
	2.622941758781938e+01
	2.516364766465870e+01
	2.378570437423181e+01
	2.585684246218733e+01
	2.720632800488054e+01
	2.481796667936149e+01
	2.495795196616523e+01
	2.601134715586285e+01
	2.584753489197378e+01
	2.609359835499672e+01
	2.530674863599466e+01
	2.641693998041715e+01
	2.562508193276373e+01
	2.602527667782857e+01
	2.583415646468712e+01
	2.640306109708639e+01
	2.693475811734373e+01
	2.523801522139486e+01
	2.523703687710407e+01
	2.736337392196159e+01
	2.365318131319760e+01
	2.686576866430410e+01
	2.551664275520191e+01
	2.543885598247156e+01
	2.550598457251543e+01
	2.791816845520448e+01
	2.684605484512025e+01
	2.586026023042064e+01
	2.705749914930052e+01
	2.591686225623161e+01
	2.529395192110940e+01
	2.286230979378855e+01
	2.440325404945263e+01
	2.588470839792509e+01
	2.827570848815170e+01
	2.648451604537264e+01
	2.635857702597498e+01
	2.719998273677604e+01
	2.501381402799577e+01
	2.525858013122117e+01
	2.455360479028629e+01
	2.402867177236100e+01
	2.324015657068653e+01
	2.690000989108466e+01
	2.695042685185782e+01
	2.541502789674574e+01
	2.740479325662260e+01
	2.717768038314508e+01
	2.568370006630184e+01
	2.586620052897211e+01
	2.452358857060647e+01
	2.619612299696537e+01
	2.523880436727816e+01
	2.653494028361667e+01
	2.530359506473114e+01
	2.522471705035144e+01
	2.540061409386871e+01
	2.502073859683675e+01
	2.746881085860561e+01

 2	2.000000000000000e-01
	4.138652949807733e+01
	4.215679647490533e+01
	3.853686284679320e+01
	3.966580620064209e+01
	4.081711732481622e+01
	3.961903494616392e+01
	4.137695173349882e+01
	3.915720221803623e+01
	4.289639205007947e+01
	4.270084291894099e+01
	4.527233621372390e+01
	4.040424680372907e+01
	4.236359349582669e+01
	4.055048466613188e+01
	3.903926181819407e+01
	4.465007263891065e+01
	4.045645398327008e+01
	3.810605315851874e+01
	3.907680895702772e+01
	3.653895837843633e+01
	4.372082752195023e+01
	3.880583393968485e+01
	4.402392476004773e+01
	4.022242829013043e+01
	3.938978206807617e+01
	4.329646915373463e+01
	4.285260822487773e+01
	4.168769968190170e+01
	4.371479226224724e+01
	4.067468573480392e+01
	4.012242795199673e+01
	3.944880618829394e+01
	4.094651771743626e+01
	4.041643215061263e+01
	4.402395726259824e+01
	4.053899395266264e+01
	4.218989936942418e+01
	4.129582384557902e+01
	4.177083373123693e+01
	4.224482782617364e+01
	4.666418888050634e+01
	4.232656426462747e+01
	4.014512583362996e+01
	3.724962854264270e+01
	4.153118804458558e+01
	4.396127629058241e+01
	3.929009775461339e+01
	3.971211201129613e+01
	4.180793572469910e+01
	4.141140790463967e+01
	4.165111689304274e+01
	4.040322804843597e+01
	4.246733686765327e+01
	4.126327971582099e+01
	4.143613844240365e+01
	4.130342056180063e+01
	4.225389538835091e+01
	4.359068070668587e+01
	4.010439619233786e+01
	4.048250326985998e+01
	4.442957701976908e+01
	3.719295027307781e+01
	4.356305128808092e+01
	4.100927575813277e+01
	4.073885239032296e+01
	4.090200372605283e+01
	4.548311096767070e+01
	4.340590239533345e+01
	4.124926718994874e+01
	4.354131802648138e+01
	4.173779942594550e+01
	4.063121827826937e+01
	3.573773496174450e+01
	3.846448485990717e+01
	4.151993225029766e+01
	4.604233393627401e+01
	4.253875610936704e+01
	4.240767834952652e+01
	4.398546516586904e+01
	4.000814443921072e+01
	4.068918224912041e+01
	3.881977531650527e+01
	3.790345346809991e+01
	3.644694109292379e+01
	4.370927846935772e+01
	4.352557353099601e+01
	4.028974394272726e+01
	4.446854421860747e+01
	4.418090104462242e+01
	4.090475770958793e+01
	4.181211251258813e+01
	3.864856118909465e+01
	4.211015112835072e+01
	4.001425224437536e+01
	4.246680845352758e+01
	4.053929799919277e+01
	4.022193508837249e+01
	4.039612719271804e+01
	3.963429036406888e+01
	4.442646021321330e+01

 3	3.000000000000000e-01
	4.760765171824233e+01
	4.898147004533726e+01
	4.392632345060331e+01
	4.522872521281858e+01
	4.657096217683171e+01
	4.520391348251636e+01
	4.772156448578927e+01
	4.451189348991395e+01
	4.941243692776094e+01
	4.946448812877862e+01
	5.311942466773240e+01
	4.642250555840320e+01
	4.872146108391583e+01
	4.648787818480063e+01
	4.460354983535779e+01
	5.154476770650741e+01
	4.617387674934879e+01
	4.310302638285165e+01
	4.428546141928654e+01
	4.091407789661970e+01
	5.094254559684976e+01
	4.402782449276267e+01
	5.141250020048965e+01
	4.601146916876668e+01
	4.475439125222730e+01
	5.057498466979222e+01
	4.972686052458450e+01
	4.770274659097318e+01
	5.081693524934519e+01
	4.672472882079557e+01
	4.604559009631706e+01
	4.508372716373473e+01
	4.685697502163102e+01
	4.618912984992394e+01
	5.153697718713116e+01
	4.640928831082288e+01
	4.838538676347982e+01
	4.721738990423710e+01
	4.805077962236951e+01
	4.889683412776004e+01
	5.491668758021719e+01
	4.906476868256004e+01
	4.596359944141425e+01
	4.182855313397259e+01
	4.789986711904102e+01
	5.104631028047383e+01
	4.462582587435806e+01
	4.534976658325279e+01
	4.826383165097771e+01
	4.763803630810347e+01
	4.769965156349387e+01
	4.628426389880313e+01
	4.902683202328499e+01
	4.774703704200775e+01
	4.732253582848553e+01
	4.739811041417315e+01
	4.853048090416252e+01
	5.071219668129244e+01
	4.570557459366532e+01
	4.663459856098313e+01
	5.189933918748842e+01
	4.194641806735486e+01
	5.080802849144421e+01
	4.733318389862204e+01
	4.683755002828332e+01
	4.708148429687463e+01
	5.336633226612041e+01
	5.045216512587736e+01
	4.721186477451149e+01
	5.034238464480292e+01
	4.828477366700113e+01
	4.688023043377055e+01
	4.007625856094509e+01
	4.346802797522271e+01
	4.782455226752224e+01
	5.398277928944894e+01
	4.905471831105827e+01
	4.899205330836221e+01
	5.115368851906521e+01
	4.594044610023359e+01
	4.708505307589623e+01
	4.402028354140355e+01
	4.288935720955539e+01
	4.099676042256187e+01
	5.111422656699663e+01
	5.052475737814431e+01
	4.585321617200326e+01
	5.189571598873940e+01
	5.168566251339643e+01
	4.673380577559574e+01
	4.859656639921624e+01
	4.368986115032639e+01
	4.860659520991960e+01
	4.553708367642639e+01
	4.878025904554348e+01
	4.664521493967619e+01
	4.603426432659870e+01
	4.611043640965972e+01
	4.503398486826880e+01
	5.164449350514752e+01

 4	4.000000000000000e-01
	4.896954119418766e+01
	5.057994054942770e+01
	4.504297464791326e+01
	4.638219395623367e+01
	4.776394397947503e+01
	4.637205101260561e+01
	4.913698777188026e+01
	4.560570010932067e+01
	5.085044021632562e+01
	5.101854025229792e+01
	5.509787305297683e+01
	4.772394014951694e+01
	5.010818759211910e+01
	4.775731410265276e+01
	4.577258531892114e+01
	5.308168668958845e+01
	4.736381873503333e+01
	4.409285079180292e+01
	4.533209104438829e+01
	4.174159495831556e+01
	5.266414867476075e+01
	4.508632302458390e+01
	5.319947745134731e+01
	4.723253349884319e+01
	4.584983760811841e+01
	5.234380971641216e+01
	5.133685921258039e+01
	4.897894623246806e+01
	5.248269269193305e+01
	4.803782836781627e+01
	4.732498939373706e+01
	4.626666499390564e+01
	4.811103271935775e+01
	4.740774397952752e+01
	5.339487063605079e+01
	4.765571340949881e+01
	4.971298104438301e+01
	4.846500629485423e+01
	4.942583190754087e+01
	5.041217940355175e+01
	5.704056771535027e+01
	5.060789744311238e+01
	4.720066514804600e+01
	4.270357711586294e+01
	4.931468938662855e+01
	5.269557510081518e+01
	4.571103929660732e+01
	4.653176849297135e+01
	4.971156378087734e+01
	4.900375681546728e+01
	4.898563359014821e+01
	4.753714953433907e+01
	5.049594609305463e+01
	4.922442942134378e+01
	4.855261064462432e+01
	4.871131642608241e+01
	4.989043845507964e+01
	5.239262854569009e+01
	4.686070194152007e+01
	4.799350076171719e+01
	5.371908199077274e+01
	4.287675738636791e+01
	5.255324746158634e+01
	4.874445469821146e+01
	4.816723882790738e+01
	4.843239486231017e+01
	5.536178122266525e+01
	5.210716057875783e+01
	4.847681992752850e+01
	5.188846887783230e+01
	4.976883604764868e+01
	4.827582837304138e+01
	4.090181941359834e+01
	4.445398134457029e+01
	4.921689386976972e+01
	5.597993345969881e+01
	5.050248241048310e+01
	5.046970344882217e+01
	5.285204321157975e+01
	4.722412907284820e+01
	4.853522232737504e+01
	4.506726138035807e+01
	4.388089737440460e+01
	4.187410467458648e+01
	5.293458161415233e+01
	5.215564366868922e+01
	4.700375057889629e+01
	5.368930906852142e+01
	5.353307426264021e+01
	4.795595542341784e+01
	5.019024496688836e+01
	4.468882312317279e+01
	5.005657304028355e+01
	4.667898770095030e+01
	5.014964131957650e+01
	4.798708769960196e+01
	4.726940727375298e+01
	4.730811839667804e+01
	4.613250512742508e+01
	5.333934008967288e+01

 5	5.000000000000000e-01
	4.931549897618586e+01
	5.097276121726868e+01
	4.533569659834018e+01
	4.668784850319371e+01
	4.808280268381606e+01
	4.667105232361958e+01
	4.949081298572943e+01
	4.589246072059277e+01
	5.121571220888466e+01
	5.140012019939709e+01
	5.557263816729233e+01
	4.805914380032596e+01
	5.046558258720680e+01
	4.808478343532447e+01
	4.607887524246060e+01
	5.347480130292627e+01
	4.768024320803347e+01
	4.436226517366785e+01
	4.561488451691623e+01
	4.198019168033090e+01
	5.308719179092532e+01
	4.536495675539089e+01
	5.363672252215736e+01
	4.754996602960671e+01
	4.613763786320726e+01
	5.277296355369395e+01
	5.172254189576592e+01
	4.930849499794755e+01
	5.289128212395099e+01
	4.837179716309119e+01
	4.765057990164449e+01
	4.657667472030712e+01
	4.843521347096963e+01
	4.772245217863242e+01
	5.384158836964522e+01
	4.797851815583617e+01
	5.005739936519223e+01
	4.878824556313609e+01
	4.977331286286688e+01
	5.078859135179665e+01
	5.754674549949228e+01
	5.099475049992756e+01
	4.752107347277997e+01
	4.295610035693709e+01
	4.967107869780949e+01
	5.310461091111445e+01
	4.599818807616451e+01
	4.683592431432431e+01
	5.007553462543752e+01
	4.934960734976918e+01
	4.932133990588497e+01
	4.786519147011273e+01
	5.086661224468816e+01
	4.958958532405268e+01
	4.887447471681292e+01
	4.904636906388857e+01
	5.024119261533868e+01
	5.280664369801353e+01
	4.716817641664653e+01
	4.833505908808023e+01
	5.415973308722126e+01
	4.313666767532338e+01
	5.297667325955828e+01
	4.909946038046860e+01
	4.850535351286683e+01
	4.877743440224520e+01
	5.583636432285913e+01
	5.251198388655598e+01
	4.880470244308997e+01
	5.227143738204904e+01
	5.013922105378600e+01
	4.862598036845753e+01
	4.113804153032071e+01
	4.472891968503696e+01
	4.956713867775161e+01
	5.645598966768500e+01
	5.086930118396806e+01
	5.084388564271104e+01
	5.326311885901292e+01
	4.755079560543726e+01
	4.889878871352236e+01
	4.535089290937393e+01
	4.414953846836848e+01
	4.212235074662593e+01
	5.337241506275770e+01
	5.255737184328446e+01
	4.729466735994202e+01
	5.412771320041545e+01
	5.397860226923382e+01
	4.827808123736749e+01
	5.057962957560154e+01
	4.496019002607861e+01
	5.042290689265581e+01
	4.697219297619389e+01
	5.049986895027146e+01
	4.832296635372892e+01
	4.758675907415761e+01
	4.761511680445921e+01
	4.642590264442963e+01
	5.375704031424802e+01

 6	6.000000000000000e-01
	4.943241895283073e+01
	5.110196918248254e+01
	4.543416793901297e+01
	4.679709825187561e+01
	4.820375019483379e+01
	4.676170447140361e+01
	4.960487885605192e+01
	4.598398524990215e+01
	5.134095385533227e+01
	5.152070052742253e+01
	5.572371651533343e+01
	4.818015549564922e+01
	5.059421457991129e+01
	4.819948600795628e+01
	4.618522260892004e+01
	5.361975924751282e+01
	4.779724478957731e+01
	4.445697937096747e+01
	4.571234945092301e+01
	4.206827134410336e+01
	5.323080513757633e+01
	4.545184048594718e+01
	5.378713048427564e+01
	4.766085006594498e+01
	4.622866225338000e+01
	5.291517039742995e+01
	5.183119932470953e+01
	4.941849325918336e+01
	5.302693037414910e+01
	4.848352403882469e+01
	4.775739812607524e+01
	4.668623968545431e+01
	4.854410869202670e+01
	4.782383838237297e+01
	5.398541456588964e+01
	4.808901258991638e+01
	5.018086952398486e+01
	4.889791465387250e+01
	4.988720928678081e+01
	5.091427883236138e+01
	5.770776120092038e+01
	5.113377026023242e+01
	4.763069484333478e+01
	4.305620731174327e+01
	4.979320215661937e+01
	5.324454593838622e+01
	4.609252570715236e+01
	4.693336901017222e+01
	5.019805538149463e+01
	4.946397538164960e+01
	4.944156976452712e+01
	4.798422786109029e+01
	5.099433381270865e+01
	4.970690685631471e+01
	4.898767184425147e+01
	4.915838567604263e+01
	5.036442845948925e+01
	5.294751190947945e+01
	4.728043243039002e+01
	4.844761080459426e+01
	5.430212757272690e+01
	4.323205002224409e+01
	5.311410185051614e+01
	4.922213092537235e+01
	4.861986711916268e+01
	4.890063566751791e+01
	5.597838662870370e+01
	5.264295979958767e+01
	4.891720313609203e+01
	5.239187916226203e+01
	5.026589955341436e+01
	4.874289706523758e+01
	4.122510431787984e+01
	4.483487226601777e+01
	4.968253905562284e+01
	5.659994839711730e+01
	5.099762682964071e+01
	5.097705148917047e+01
	5.338768038900480e+01
	4.765975343890894e+01
	4.902629905137901e+01
	4.545141308754806e+01
	4.424147136539852e+01
	4.221481432897355e+01
	5.351015285589742e+01
	5.268899387164531e+01
	4.737500272606991e+01
	5.427543630173834e+01
	5.412177087811207e+01
	4.839375431095949e+01
	5.070498940355512e+01
	4.505250893126428e+01
	5.055119566604123e+01
	4.705826578031301e+01
	5.061945580024738e+01
	4.842901610015063e+01
	4.769079223319070e+01
	4.770980217438134e+01
	4.652789560425339e+01
	5.389766511270115e+01

 7	7.000000000000000e-01
	4.945589195854837e+01
	5.112802997735069e+01
	4.545296811512873e+01
	4.681974869606567e+01
	4.823142500997744e+01
	4.677818506096778e+01
	4.962674222972103e+01
	4.600070332734063e+01
	5.136661664461879e+01
	5.154397958181088e+01
	5.575513069021819e+01
	4.820670647801939e+01
	5.062278926076422e+01
	4.822330819385868e+01
	4.620645193835937e+01
	5.365425632927062e+01
	4.782302481597133e+01
	4.447529159833628e+01
	4.573111837938846e+01
	4.208561385042380e+01
	5.326243814782444e+01
	4.546763392076657e+01
	5.382134160708735e+01
	4.768331899115182e+01
	4.624528893737022e+01
	5.294533907899892e+01
	5.185125085625428e+01
	4.943993733150872e+01
	5.305487082216121e+01
	4.850559354902667e+01
	4.777799799073263e+01
	4.670853473626656e+01
	4.856538915446037e+01
	4.784280430949789e+01
	5.401520852582598e+01
	4.811084404056593e+01
	5.020746295822398e+01
	4.891953751697302e+01
	4.990903485636552e+01
	5.093979284746743e+01
	5.774179384707427e+01
	5.116568348567088e+01
	4.765235865353127e+01
	4.307814345342643e+01
	4.981842126569656e+01
	5.327455220144589e+01
	4.611016437949735e+01
	4.695158733289775e+01
	5.022297864704876e+01
	4.948643098588658e+01
	4.946710343614244e+01
	4.800979331199325e+01
	5.102123447027257e+01
	4.972951025582640e+01
	4.901108020666202e+01
	4.918030784420999e+01
	5.039016344292465e+01
	5.297795722675831e+01
	4.730417678594013e+01
	4.846942305630482e+01
	5.433146679925856e+01
	4.325124064623895e+01
	5.314267811133103e+01
	4.924793091175955e+01
	4.864280477726100e+01
	4.892705164563161e+01
	5.600609560876650e+01
	5.266905398710416e+01
	4.893974353923041e+01
	5.241488769372796e+01
	5.029239377307628e+01
	4.876632209252799e+01
	4.124225958029317e+01
	4.485816523929615e+01
	4.970511038208849e+01
	5.662831943531465e+01
	5.102554644781149e+01
	5.100696020597921e+01
	5.341137111789722e+01
	4.768104566052456e+01
	4.905405700096155e+01
	4.547132199334686e+01
	4.425875636415136e+01
	4.223338556047854e+01
	5.353754455201371e+01
	5.271583410282462e+01
	4.738959589193693e+01
	5.430769307799622e+01
	5.415099953850664e+01
	4.841799928457027e+01
	5.072975025242085e+01
	4.507000508647781e+01
	5.057859197482399e+01
	4.707393602940591e+01
	5.064381303175201e+01
	4.844892967777398e+01
	4.771073854187031e+01
	4.772708083215695e+01
	4.654807018374942e+01
	5.392758176729813e+01

 8	7.999999999999999e-01
	4.946325239752988e+01
	5.113598331731050e+01
	4.545928000257145e+01
	4.682648962962170e+01
	4.823849627885875e+01
	4.678479714845479e+01
	4.963409743188559e+01
	4.600691583378036e+01
	5.137437118562713e+01
	5.155192354926196e+01
	5.576494182294909e+01
	4.821388768391527e+01
	5.063049840607712e+01
	4.823041437641167e+01
	4.621309210678230e+01
	5.366269286850400e+01
	4.783003081559162e+01
	4.448121553673719e+01
	4.573735998473062e+01
	4.209109902780306e+01
	5.327120829471820e+01
	4.547381527415491e+01
	5.383030103556447e+01
	4.769012851681294e+01
	4.625158696349005e+01
	5.295407667618376e+01
	5.185962665671677e+01
	4.944707668809304e+01
	5.306319326027736e+01
	4.851271697931675e+01
	4.778502010547062e+01
	4.671514806305164e+01
	4.857239072566914e+01
	4.784957719995220e+01
	5.402431179070118e+01
	4.811770919174101e+01
	5.021493591178365e+01
	4.892652733990137e+01
	4.991623014707176e+01
	5.094758007837821e+01
	5.775213419821483e+01
	5.117361394249651e+01
	4.765917389540537e+01
	4.308389024396217e+01
	4.982586530226688e+01
	5.328301563379482e+01
	4.611646238114999e+01
	4.695821629714040e+01
	5.023066930448582e+01
	4.949379620554752e+01
	4.947438942602743e+01
	4.801679117070318e+01
	5.102916492319432e+01
	4.973700626743113e+01
	4.901819203568625e+01
	4.918739017626262e+01
	5.039764219439996e+01
	5.298655035069512e+01
	4.731082867028002e+01
	4.847644532421889e+01
	5.434050380168109e+01
	4.325711347698670e+01
	5.315161008534984e+01
	4.925551921925179e+01
	4.864997682993519e+01
	4.893412676880871e+01
	5.601593482166373e+01
	5.267727197576406e+01
	4.894681358728555e+01
	5.242290802498528e+01
	5.030011801849437e+01
	4.877372115440854e+01
	4.124764973074794e+01
	4.486440053065198e+01
	4.971245441256654e+01
	5.663822602995118e+01
	5.103365145005799e+01
	5.101494578378207e+01
	5.342000111551435e+01
	4.768802471857251e+01
	4.906158119436595e+01
	4.547752003369800e+01
	4.426459035779089e+01
	4.223895021240420e+01
	5.354644983889846e+01
	5.272432852995853e+01
	4.739624340256818e+01
	5.431689462550367e+01
	5.415998752143877e+01
	4.842499947161055e+01
	5.073772073144786e+01
	4.507605018402361e+01
	5.058625460654931e+01
	4.708058824540119e+01
	5.065138198105711e+01
	4.845602697566400e+01
	4.771768400841638e+01
	4.773372000319346e+01
	4.655462755897980e+01
	5.393635172557735e+01

 9	8.999999999999999e-01
	4.946853259774531e+01
	5.114161495164645e+01
	4.546388484409940e+01
	4.683136526287550e+01
	4.824362594635194e+01
	4.678973948907543e+01
	4.963939375179818e+01
	4.601150162920084e+01
	5.137989979937070e+01
	5.155762382188232e+01
	5.577179440619266e+01
	4.821904087127159e+01
	5.063598181729656e+01
	4.823552821366312e+01
	4.621790478320374e+01
	5.366869615418474e+01
	4.783507981458948e+01
	4.448553018820554e+01
	4.574191097998055e+01
	4.209511691294007e+01
	5.327734713340363e+01
	4.547842647564826e+01
	5.383656385840911e+01
	4.769503107362766e+01
	4.625624838306688e+01
	5.296019945724153e+01
	5.186582828003387e+01
	4.945223293143246e+01
	5.306905173466678e+01
	4.851785203501458e+01
	4.779012952783413e+01
	4.671991026174496e+01
	4.857745211131112e+01
	4.785452420221338e+01
	5.403069260466920e+01
	4.812265100961671e+01
	5.022027619804688e+01
	4.893156856616973e+01
	4.992139671905537e+01
	5.095311479327098e+01
	5.775928644842000e+01
	5.117925617740681e+01
	4.766408498395000e+01
	4.308808253849345e+01
	4.983116718267110e+01
	5.328895937103202e+01
	4.612108774709007e+01
	4.696308878126676e+01
	5.023616008834682e+01
	4.949909850922545e+01
	4.947960874381214e+01
	4.802181210634472e+01
	5.103481321537930e+01
	4.974239132104987e+01
	4.902330986516036e+01
	4.919248214789007e+01
	5.040297390994949e+01
	5.299258182205568e+01
	4.731561530748100e+01
	4.848148663017827e+01
	5.434683829767145e+01
	4.326140237215107e+01
	5.315791291270362e+01
	4.926096130416645e+01
	4.865513054741607e+01
	4.893915441134039e+01
	5.602292841136686e+01
	5.268308180081350e+01
	4.895189637129098e+01
	5.242866845342996e+01
	5.030561407917667e+01
	4.877903915946169e+01
	4.125160373224244e+01
	4.486894335431414e+01
	4.971772803863752e+01
	5.664523646184037e+01
	5.103943322310877e+01
	5.102061351006245e+01
	5.342622464516876e+01
	4.769308068691735e+01
	4.906694002336000e+01
	4.548201108549202e+01
	4.426885273355671e+01
	4.224300293754026e+01
	5.355275705818156e+01
	5.273035845927113e+01
	4.740131382710349e+01
	5.432332960371411e+01
	5.416629470887094e+01
	4.843002885104115e+01
	5.074341070909804e+01
	4.508048649124559e+01
	5.059169913188997e+01
	4.708560074217138e+01
	5.065679827605317e+01
	4.846119785023529e+01
	4.772275747771275e+01
	4.773862196867564e+01
	4.655940371073200e+01
	5.394251303664156e+01

 10	9.999999999999999e-01
	4.947277584480361e+01
	5.114611829625730e+01
	4.546764454596271e+01
	4.683522923919497e+01
	4.824745925508282e+01
	4.679390207114418e+01
	4.964371530620949e+01
	4.601531228876001e+01
	5.138428714536524e+01
	5.156229034083200e+01
	5.577732144751717e+01
	4.822300308758088e+01
	5.064019270668157e+01
	4.823958774345844e+01
	4.622177167061070e+01
	5.367310516614268e+01
	4.783895974587330e+01
	4.448901306615340e+01
	4.574561126692708e+01
	4.209834055078751e+01
	5.328213198001718e+01
	4.548229559623099e+01
	5.384134635137661e+01
	4.769893008088274e+01
	4.626013478043747e+01
	5.296504279425759e+01
	5.187106816928748e+01
	4.945642552700374e+01
	5.307369865665938e+01
	4.852201054579390e+01
	4.779431762286994e+01
	4.672367530546219e+01
	4.858156032089972e+01
	4.785860526750508e+01
	5.403581179822198e+01
	4.812661600867517e+01
	5.022442715948993e+01
	4.893564080382911e+01
	4.992558347114610e+01
	5.095753558847084e+01
	5.776501348438428e+01
	5.118344942056543e+01
	4.766802959608703e+01
	4.309122568036219e+01
	4.983536360457367e+01
	5.329360019421480e+01
	4.612490612914224e+01
	4.696712909106864e+01
	5.024056092128165e+01
	4.950340455415147e+01
	4.948368339698106e+01
	4.802568184565778e+01
	5.103928246093204e+01
	4.974677620937405e+01
	4.902738481460791e+01
	4.919659634544345e+01
	5.040715850671994e+01
	5.299730613095408e+01
	4.731932616645722e+01
	4.848556273633194e+01
	5.435192208772519e+01
	4.326481825793385e+01
	5.316300277668898e+01
	4.926527055295433e+01
	4.865927163751061e+01
	4.894299330895089e+01
	5.602870051127362e+01
	5.268775593137570e+01
	4.895597503356490e+01
	5.243339286107728e+01
	5.030995287347566e+01
	4.878333147702036e+01
	4.125477641382604e+01
	4.487239780009121e+01
	4.972200045006065e+01
	5.665100302541749e+01
	5.104399867215265e+01
	5.102496074092593e+01
	5.343137665534304e+01
	4.769718940925193e+01
	4.907107579419441e+01
	4.548560532369010e+01
	4.427232823733351e+01
	4.224620456917032e+01
	5.355788003444850e+01
	5.273522413891071e+01
	4.740565061043449e+01
	5.432839262332944e+01
	5.417135183133739e+01
	4.843396723717552e+01
	5.074802239673950e+01
	4.508412515951017e+01
	5.059593325319484e+01
	4.708985308978875e+01
	5.066113584631349e+01
	4.846546863023881e+01
	4.772693146509364e+01
	4.774271515144894e+01
	4.656327137388052e+01
	5.394738535762573e+01

 11	1.100000000000000e+00
	4.947658640032805e+01
	5.115014719241150e+01
	4.547104054776355e+01
	4.683870323706829e+01
	4.825088622733935e+01
	4.679768373232109e+01
	4.964760216784303e+01
	4.601876502698858e+01
	5.138821975911095e+01
	5.156648274985600e+01
	5.578225368961813e+01
	4.822654905404578e+01
	5.064394953526699e+01
	4.824323299558778e+01
	4.622525554689300e+01
	5.367701668415961e+01
	4.784243438150546e+01
	4.449216019450982e+01
	4.574895280317725e+01
	4.210125911786108e+01
	5.328639301166915e+01
	4.548580844242092e+01
	5.384559578877916e+01
	4.770243422680225e+01
	4.626365667157936e+01
	5.296936205952758e+01
	5.187580738370389e+01
	4.946019888016524e+01
	5.307784812958718e+01
	4.852575081783986e+01
	4.779809672722654e+01
	4.672705790374212e+01
	4.858525910244780e+01
	4.786229029998779e+01
	5.404038231415526e+01
	4.813018191881331e+01
	5.022813970301439e+01
	4.893930442800712e+01
	4.992934792230239e+01
	5.096149446367148e+01
	5.777011227590619e+01
	5.118717799153412e+01
	4.767157771649758e+01
	4.309404901336436e+01
	4.983912051430002e+01
	5.329773529052281e+01
	4.612836022788885e+01
	4.697078401710115e+01
	5.024450656935728e+01
	4.950727630261193e+01
	4.948733253133457e+01
	4.802914414898159e+01
	5.104328388403690e+01
	4.975071839694218e+01