Title: monte carlo simulation plot
Date: Fri Oct  6 12:51:34  2017
Plotname: monte_carlo
Flags: real
No. Variables: 101
No. Points: 31
Variables:
	0	voltage_sweep	voltage
	1	output_current_0	notype
	2	output_current_1	notype
	3	output_current_2	notype
	4	output_current_3	notype
	5	output_current_4	notype
	6	output_current_5	notype
	7	output_current_6	notype
	8	output_current_7	notype
	9	output_current_8	notype
	10	output_current_9	notype
	11	output_current_10	notype
	12	output_current_11	notype
	13	output_current_12	notype
	14	output_current_13	notype
	15	output_current_14	notype
	16	output_current_15	notype
	17	output_current_16	notype
	18	output_current_17	notype
	19	output_current_18	notype
	20	output_current_19	notype
	21	output_current_20	notype
	22	output_current_21	notype
	23	output_current_22	notype
	24	output_current_23	notype
	25	output_current_24	notype
	26	output_current_25	notype
	27	output_current_26	notype
	28	output_current_27	notype
	29	output_current_28	notype
	30	output_current_29	notype
	31	output_current_30	notype
	32	output_current_31	notype
	33	output_current_32	notype
	34	output_current_33	notype
	35	output_current_34	notype
	36	output_current_35	notype
	37	output_current_36	notype
	38	output_current_37	notype
	39	output_current_38	notype
	40	output_current_39	notype
	41	output_current_40	notype
	42	output_current_41	notype
	43	output_current_42	notype
	44	output_current_43	notype
	45	output_current_44	notype
	46	output_current_45	notype
	47	output_current_46	notype
	48	output_current_47	notype
	49	output_current_48	notype
	50	output_current_49	notype
	51	output_current_50	notype
	52	output_current_51	notype
	53	output_current_52	notype
	54	output_current_53	notype
	55	output_current_54	notype
	56	output_current_55	notype
	57	output_current_56	notype
	58	output_current_57	notype
	59	output_current_58	notype
	60	output_current_59	notype
	61	output_current_60	notype
	62	output_current_61	notype
	63	output_current_62	notype
	64	output_current_63	notype
	65	output_current_64	notype
	66	output_current_65	notype
	67	output_current_66	notype
	68	output_current_67	notype
	69	output_current_68	notype
	70	output_current_69	notype
	71	output_current_70	notype
	72	output_current_71	notype
	73	output_current_72	notype
	74	output_current_73	notype
	75	output_current_74	notype
	76	output_current_75	notype
	77	output_current_76	notype
	78	output_current_77	notype
	79	output_current_78	notype
	80	output_current_79	notype
	81	output_current_80	notype
	82	output_current_81	notype
	83	output_current_82	notype
	84	output_current_83	notype
	85	output_current_84	notype
	86	output_current_85	notype
	87	output_current_86	notype
	88	output_current_87	notype
	89	output_current_88	notype
	90	output_current_89	notype
	91	output_current_90	notype
	92	output_current_91	notype
	93	output_current_92	notype
	94	output_current_93	notype
	95	output_current_94	notype
	96	output_current_95	notype
	97	output_current_96	notype
	98	output_current_97	notype
	99	output_current_98	notype
	100	output_current_99	notype
Values:
 0	0.000000000000000e+00
	-3.621843592449108e-15
	-6.181167971985422e-15
	-9.619331007912358e-16
	-2.241900557506793e-15
	1.390880063959032e-14
	-3.598129106193647e-15
	-2.329573349485112e-15
	-5.910005887582317e-15
	-4.732264160838366e-15
	-2.278707385801262e-15
	-6.075496348378211e-15
	-3.666925761145074e-15
	-3.422958536471126e-15
	-3.559282820142715e-15
	-2.425045404160330e-15
	-1.161979098979425e-15
	-6.160434329888853e-15
	-3.642235624388106e-15
	-2.326501362030892e-15
	-4.528685974567969e-15
	-1.981166198580478e-14
	-2.171538654331039e-15
	-2.546399438329575e-15
	-2.466939130640152e-15
	9.848625496693564e-15
	1.299421276278852e-14
	-3.401259592220124e-15
	1.491459870552788e-14
	1.382361173121407e-14
	-2.622276025756083e-15
	-3.425731621320913e-15
	-4.478499925068956e-15
	-3.384443513321346e-15
	-2.366607417180301e-15
	1.308294324364011e-14
	-2.292910978349283e-15
	-2.456391867943494e-15
	-3.341553699170419e-15
	-2.434224937101836e-15
	-2.270382436126447e-15
	1.460330271408179e-14
	-3.273655269252550e-15
	1.348753545536408e-14
	-5.930289517724319e-15
	-3.319216397665141e-15
	-1.041561955466288e-15
	-3.481733090914478e-15
	1.320451588691423e-14
	-7.026382261496285e-15
	-1.153591809575331e-15
	-2.126872597574522e-15
	-3.612059131471210e-15
	-4.639865951373629e-15
	-2.456651471287972e-15
	-2.379507919148981e-15
	-4.297403030638821e-15
	-2.413391267298714e-15
	-4.808240338743825e-15
	1.321735991253122e-14
	-2.147394373671983e-14
	-2.381180355802853e-15
	8.906711407833077e-15
	-6.993571852119948e-15
	-2.294659627664870e-15
	-3.566442337736147e-15
	1.195239787131245e-14
	-4.761212467511343e-15
	-3.472661846889865e-15
	-1.183393413563487e-15
	-4.623646919162946e-15
	-2.427793045119176e-15
	-1.997559980367604e-14
	-3.624885113675700e-15
	1.579772703348406e-16
	-2.243751077897630e-15
	-9.920996544174088e-16
	-8.369254537277439e-15
	-3.226034602889153e-15
	-5.080162581464827e-15
	-3.568229996633142e-15
	-1.184190889162497e-15
	-1.049601774923140e-15
	-2.194871545229381e-15
	-2.075147315550319e-14
	8.894248285751444e-15
	-1.134309395623416e-15
	-1.970396903051797e-14
	-2.490126551629112e-15
	-3.557572187317976e-15
	-2.485375232309041e-15
	1.484822406440860e-14
	-3.628682140933029e-15
	1.686339601796107e-14
	1.288414687598072e-14
	1.232398716940594e-14
	1.248579197729574e-14
	-3.173641509626615e-15
	-2.409857819762516e-15
	1.332108046169642e-14
	-3.577497330681831e-15

 1	1.000000000000000e-01
	2.583027737096868e+01
	2.414134103937836e+01
	2.791439483014315e+01
	2.589276622745535e+01
	2.699663706432775e+01
	2.557169526831494e+01
	2.549769342251527e+01
	2.570416945276459e+01
	2.422221073922821e+01
	2.562091363459595e+01
	2.442682380046068e+01
	2.630384633986951e+01
	2.630151406533872e+01
	2.708394115904536e+01
	2.550926454502815e+01
	2.601408109201065e+01
	2.371155943009742e+01
	2.582040698380371e+01
	2.843063868800899e+01
	2.680190607097217e+01
	2.407541509614053e+01
	2.653876292958524e+01
	2.551612948832167e+01
	2.500359612424014e+01
	2.809035138633931e+01
	2.564129041905695e+01
	2.639368048071376e+01
	2.892994779108555e+01
	2.490787789354930e+01
	2.740192135806647e+01
	2.630271393828088e+01
	2.586823897567396e+01
	2.773247083135692e+01
	2.698255097972804e+01
	2.761248419072880e+01
	2.764357148904550e+01
	2.749256049954384e+01
	2.728547628451827e+01
	2.631902903641819e+01
	2.435674210574778e+01
	2.444594035094464e+01
	2.727978577427305e+01
	2.444488629321537e+01
	2.480648242561343e+01
	2.529725231822383e+01
	2.638385661987369e+01
	2.494279296878155e+01
	2.596779199754795e+01
	2.597404442623454e+01
	2.689056071121152e+01
	2.728582467728656e+01
	2.411273842176396e+01
	2.568895016881158e+01
	2.644464840774172e+01
	2.508590886168750e+01
	2.558053033909772e+01
	2.608363566588265e+01
	2.630397448203215e+01
	2.573487364834218e+01
	2.427966138615677e+01
	2.561548449592459e+01
	2.662460558312194e+01
	2.360164512935847e+01
	2.633148817317251e+01
	2.729974024464586e+01
	2.390984130346579e+01
	2.352807738246235e+01
	2.796557120347859e+01
	2.669215269153500e+01
	2.853577497078011e+01
	2.642523396153416e+01
	2.453775072955410e+01
	2.502665541855883e+01
	2.749854898525336e+01
	2.739917067533931e+01
	2.722975159232157e+01
	2.326156801694082e+01
	2.840179939888064e+01
	2.517253749442006e+01
	2.449197538785172e+01
	2.527489189022981e+01
	2.719031575120184e+01
	2.565740935859635e+01
	2.734370204569020e+01
	2.501162493519759e+01
	2.624189160550763e+01
	2.548999483933411e+01
	2.546521080196182e+01
	2.524566022909105e+01
	2.605095482184009e+01
	2.675079476971036e+01
	2.422812830817097e+01
	2.790967862939592e+01
	2.712058604663274e+01
	2.473439909824196e+01
	2.466920813668487e+01
	2.436407171589667e+01
	2.698185228981629e+01
	2.436196901668833e+01
	2.565148689280775e+01

 2	2.000000000000000e-01
	4.138652949807733e+01
	3.794980178077850e+01
	4.549618636601248e+01
	4.173294204920023e+01
	4.372094741618417e+01
	4.092433628391147e+01
	4.069835044548881e+01
	4.126935826460067e+01
	3.832628301494496e+01
	4.107597200497342e+01
	3.868282178774101e+01
	4.200845842675093e+01
	4.243264569874272e+01
	4.395257879862215e+01
	4.082961686859852e+01
	4.170496331354612e+01
	3.716117477626155e+01
	4.132769493619367e+01
	4.629204281630486e+01
	4.332637838891188e+01
	3.829531329013452e+01
	4.283546058710026e+01
	4.047892010229369e+01
	3.976035237102229e+01
	4.570154687074819e+01
	4.117166893125660e+01
	4.272004519390138e+01
	4.744598561479180e+01
	3.970925243777062e+01
	4.392105803859886e+01
	4.252527937383252e+01
	4.165429891103333e+01
	4.542518473247767e+01
	4.377463992121864e+01
	4.504540787764096e+01
	4.492835168552767e+01
	4.452305673140852e+01
	4.421754129306920e+01
	4.212520098035487e+01
	3.875803261277591e+01
	3.845774540012898e+01
	4.447662078430818e+01
	3.879851734369266e+01
	3.954499158263962e+01
	4.057555455788689e+01
	4.250209512064816e+01
	3.982560773801243e+01
	4.192893428269758e+01
	4.172519832427058e+01
	4.335742522758914e+01
	4.420518842026765e+01
	3.800098723499937e+01
	4.121518101529874e+01
	4.247065874884195e+01
	3.977958439874070e+01
	4.133500565721324e+01
	4.190411662403489e+01
	4.227608145248836e+01
	4.133947156905555e+01
	3.838368912924830e+01
	4.098032491741562e+01
	4.298596182607543e+01
	3.706008176890176e+01
	4.239809539950073e+01
	4.427041936280346e+01
	3.778879601987887e+01
	3.706733212584437e+01
	4.533061728628634e+01
	4.295967461425569e+01
	4.648662483707147e+01
	4.262386994872444e+01
	3.913358113709629e+01
	3.987079048879939e+01
	4.467467970553638e+01
	4.462596900583721e+01
	4.420611321305297e+01
	3.627540622232211e+01
	4.645009203138919e+01
	3.974876887469775e+01
	3.881897433622850e+01
	4.019316775843352e+01
	4.394615193108375e+01
	4.129774781967311e+01
	4.417624288844404e+01
	3.977130970396951e+01
	4.195554236594054e+01
	4.083557649195563e+01
	4.055484059023537e+01
	4.031973462839485e+01
	4.174827992809213e+01
	4.336565594055129e+01
	3.828350280619940e+01
	4.524101770278204e+01
	4.410241503618174e+01
	3.912366547700231e+01
	3.926582941995834e+01
	3.864631193551187e+01
	4.366792382344412e+01
	3.828201326117892e+01
	4.105659800860471e+01

 3	3.000000000000000e-01
	4.760765171824233e+01
	4.277792094182914e+01
	5.339403644769844e+01
	4.833139145993005e+01
	5.089805637150196e+01
	4.700921204003813e+01
	4.661430818060462e+01
	4.756662903229538e+01
	4.350638496536011e+01
	4.727622178979249e+01
	4.393125283738827e+01
	4.814617167460224e+01
	4.918921860908639e+01
	5.130620092476639e+01
	4.691094687316543e+01
	4.801120038097975e+01
	4.178124052066622e+01
	4.747846456674060e+01
	5.424435849581860e+01
	5.033627069161138e+01
	4.372111441157286e+01
	4.968613000156687e+01
	4.606732509242101e+01
	4.536764297894758e+01
	5.348922051743219e+01
	4.746896005775574e+01
	4.971062771266937e+01
	5.609600083378717e+01
	4.543064747616419e+01
	5.053651210194148e+01
	4.941482852823778e+01
	4.817884024344011e+01
	5.362369638368605e+01
	5.107950409306809e+01
	5.291061751224959e+01
	5.254043372941977e+01
	5.185153431720615e+01
	5.153028261716360e+01
	4.840217340663049e+01
	4.425219804762219e+01
	4.339647187959834e+01
	5.220673315199946e+01
	4.417153778555149e+01
	4.523362817622704e+01
	4.672672039376317e+01
	4.919806097497968e+01
	4.562655706281008e+01
	4.865730289131226e+01
	4.813176425170204e+01
	5.024532735520891e+01
	5.150635216440069e+01
	4.295466858122128e+01
	4.748088144454322e+01
	4.898285867265331e+01
	4.524768506675275e+01
	4.801631189323762e+01
	4.836083820221768e+01
	4.879316219412409e+01
	4.769011607994630e+01
	4.352778906015418e+01
	4.706171028401681e+01
	4.986706815200687e+01
	4.174499235517720e+01
	4.905835775257652e+01
	5.162976413962883e+01
	4.284193150132245e+01
	4.188864655962506e+01
	5.283228623348873e+01
	4.966395386732948e+01
	5.450270824829221e+01
	4.939802009539063e+01
	4.479996653566494e+01
	4.558278468601342e+01
	5.221950531467150e+01
	5.232387101637354e+01
	5.162731537540635e+01
	4.059118654857233e+01
	5.471450240801540e+01
	4.501529212416582e+01
	4.414073634247454e+01
	4.587717678375549e+01
	5.104706636839602e+01
	4.776597423776738e+01
	5.130374071191574e+01
	4.536608691517284e+01
	4.813643315045358e+01
	4.699262786284555e+01
	4.634655808202550e+01
	4.623065469736576e+01
	4.803090838035665e+01
	5.054521340472910e+01
	4.338689245748955e+01
	5.275145600292769e+01
	5.160108591943752e+01
	4.439313545607344e+01
	4.484803993288187e+01
	4.397650303531277e+01
	5.081915296363082e+01
	4.315219999192764e+01
	4.716842663454976e+01

 4	4.000000000000000e-01
	4.896954119418766e+01
	4.371803196673122e+01
	5.538932590135826e+01
	4.984026681812637e+01
	5.259610782819350e+01
	4.832569023630691e+01
	4.787300406433473e+01
	4.895754445356971e+01
	4.455546378232718e+01
	4.863654584848169e+01
	4.499324598607120e+01
	4.945982072517390e+01
	5.074411449105173e+01
	5.308679444428129e+01
	4.823040838404182e+01
	4.939991653552998e+01
	4.267347310890095e+01
	4.881443685920671e+01
	5.622334138132013e+01
	5.197265389956468e+01
	4.485703979407305e+01
	5.127029233392498e+01
	4.721671697321796e+01
	4.653882593173703e+01
	5.540525621828001e+01
	4.886452163850458e+01
	5.136212325945508e+01
	5.840402975401318e+01
	4.664070667900815e+01
	5.198958419988043e+01
	5.102474959551217e+01
	4.965530166602989e+01
	5.577959922390779e+01
	5.284030783528961e+01
	5.490213982050794e+01
	5.440909822336282e+01
	5.359927523826850e+01
	5.328089521726892e+01
	4.977039663259957e+01
	4.539976608298416e+01
	4.436745033167382e+01
	5.415285607658939e+01
	4.527414031140783e+01
	4.643408639223948e+01
	4.807989677921241e+01
	5.073045848372931e+01
	4.686071997121307e+01
	5.021797331633427e+01
	4.955795402278662e+01
	5.183594360180102e+01
	5.325426912927657e+01
	4.393450666196271e+01
	4.886489257669393e+01
	5.043315029501215e+01
	4.636661921737054e+01
	4.957855994035097e+01
	4.980751201995540e+01
	5.024969661775002e+01
	4.910510817273257e+01
	4.456334182794899e+01
	4.838048063510262e+01
	5.145861631038279e+01
	4.265699081854152e+01
	5.057954051855825e+01
	5.339841473642247e+01
	4.385620998336167e+01
	4.284135242009422e+01
	5.462768412625295e+01
	5.118114821983850e+01
	5.650377297008539e+01
	5.095416427181056e+01
	4.600346714599252e+01
	4.678767126389417e+01
	5.406271946270077e+01
	5.425152709902882e+01
	5.343098969584129e+01
	4.140545751772347e+01
	5.684786857341336e+01
	4.606839736607589e+01
	4.522881984454037e+01
	4.706835326932708e+01
	5.270458457216760e+01
	4.923553931249699e+01
	5.296952722955641e+01
	4.652829583002652e+01
	4.946518088023443e+01
	4.835095914169026e+01
	4.756679791972861e+01
	4.750206404153701e+01
	4.940818839439701e+01
	5.225765831520584e+01
	4.440917442924503e+01
	5.456475899290385e+01
	5.344246769868936e+01
	4.545908998975775e+01
	4.601642778677466e+01
	4.506839306284245e+01
	5.251522942961462e+01
	4.410457966659432e+01
	4.849511720405943e+01

 5	5.000000000000000e-01
	4.931549897618586e+01
	4.398302674239843e+01
	5.586634185113747e+01
	5.021417981401820e+01
	5.301409056743478e+01
	4.866255024312569e+01
	4.819798297396263e+01
	4.931458711489257e+01
	4.483530326531788e+01
	4.898286853683039e+01
	4.528151121062460e+01
	4.979824515113457e+01
	5.113088197557757e+01
	5.352003199946736e+01
	4.856754877339534e+01
	4.974934276529740e+01
	4.292303928907020e+01
	4.915739010768522e+01
	5.670151515644911e+01
	5.237574310630421e+01
	4.515054814208239e+01
	5.166116948351711e+01
	4.752116197920525e+01
	4.684649724721884e+01
	5.587320034517649e+01
	4.921874912841340e+01
	5.176697226889204e+01
	5.895236249818059e+01
	4.695394713796010e+01
	5.235733944785540e+01
	5.142208378490763e+01
	5.002476725499871e+01
	5.629403822757711e+01
	5.326907203680165e+01
	5.538068785048480e+01
	5.486055896305949e+01
	5.402319925612342e+01
	5.370807800202099e+01
	5.011930378902253e+01
	4.570048929437197e+01
	4.463327602578711e+01
	5.461987389203323e+01
	4.556894273995257e+01
	4.674722162853348e+01
	4.842429079073181e+01
	5.111026135714913e+01
	4.718187220316541e+01
	5.060377493426083e+01
	4.991739653387102e+01
	5.222724669725726e+01
	5.367865493249749e+01
	4.420284529176418e+01
	4.921524685805762e+01
	5.079882861276603e+01
	4.666495121228919e+01
	4.996182090724946e+01
	5.016569718080996e+01
	5.061786518952032e+01
	4.946088701934760e+01
	4.484248015692661e+01
	4.871830392681547e+01
	5.185652776997922e+01
	4.291074270282015e+01
	5.095426855793954e+01
	5.383003267763755e+01
	4.412921840127461e+01
	4.310343152277559e+01
	5.506727030003567e+01
	5.156179393848011e+01
	5.698663547141965e+01
	5.134106970342662e+01
	4.631117636970177e+01
	4.710071300932297e+01
	5.450680839975589e+01
	5.471510481776817e+01
	5.386933240494120e+01
	4.163922685811194e+01
	5.736200452040969e+01
	4.635403101969064e+01
	4.551798369182084e+01
	4.737343381827836e+01
	5.311328956660228e+01
	4.959778792150638e+01
	5.337693318758352e+01
	4.683579596480888e+01
	4.980712217518600e+01
	4.868766328230294e+01
	4.788435679384853e+01
	4.782590413620626e+01
	4.975875725915817e+01
	5.267712353281158e+01
	4.468648503167449e+01
	5.500457836404290e+01
	5.388759993449235e+01
	4.574532446311738e+01
	4.632049142924721e+01
	4.535810251052189e+01
	5.292790316872479e+01
	4.436662502917680e+01
	4.883543229085058e+01

 6	6.000000000000000e-01
	4.943241895283073e+01
	4.408426680031709e+01
	5.601522935734255e+01
	5.033826719708415e+01
	5.315720412824194e+01
	4.877944525200474e+01
	4.831060189218657e+01
	4.944548247081033e+01
	4.492997918824175e+01
	4.910342770322504e+01
	4.538890387511142e+01
	4.991288734481454e+01
	5.126310881481974e+01
	5.366316924089378e+01
	4.868302650500771e+01
	4.986281797216073e+01
	4.300957256148953e+01
	4.927678007901203e+01
	5.685893840114608e+01
	5.251258129671010e+01
	4.524541670369495e+01
	5.179108795259207e+01
	4.762444938320092e+01
	4.695114335908084e+01
	5.603368761379905e+01
	4.934282829067288e+01
	5.190298778392685e+01
	5.912657178079736e+01
	4.706057887836335e+01
	5.247930849896989e+01
	5.155830642599400e+01
	5.015242062055166e+01
	5.646064443290204e+01
	5.341090591936734e+01
	5.553789466427716e+01
	5.500660885458483e+01
	5.415679112018486e+01
	5.384819209863735e+01
	5.023595266981666e+01
	4.580522217203663e+01
	4.472374468566468e+01
	5.477350965129755e+01
	4.567589515819856e+01
	4.685792798326085e+01
	4.854484740539539e+01
	5.123370719118498e+01
	4.729793610036635e+01
	5.073339368964855e+01
	5.004094853041849e+01
	5.235027111158983e+01
	5.381399570772786e+01
	4.429765973537126e+01
	4.933445556566283e+01
	5.092158080118254e+01
	4.676937197528488e+01
	5.008856457328059e+01
	5.027800975076970e+01
	5.074518556975633e+01
	4.958123548444188e+01
	4.493948544941398e+01
	4.883346712734220e+01
	5.199498109286990e+01
	4.299982621427554e+01
	5.107187482030157e+01
	5.397361462447449e+01
	4.422400879341406e+01
	4.319669856885761e+01
	5.521392827280685e+01
	5.169019079309331e+01
	5.714622724370866e+01
	5.147282833685939e+01
	4.641139971970547e+01
	4.720674035062655e+01
	5.464863986343722e+01
	5.486462495345504e+01
	5.401297271167888e+01
	4.172235546133355e+01
	5.753516391493224e+01
	4.645400660581781e+01
	4.561681772717358e+01
	4.746731060740756e+01
	5.325043882605483e+01
	4.971226735904943e+01
	5.350644083134282e+01
	4.694578852569185e+01
	4.992621771824485e+01
	4.878917254443787e+01
	4.799105678849497e+01
	4.793004262528802e+01
	4.987816054959667e+01
	5.282017323515839e+01
	4.478544618508680e+01
	5.514220841555510e+01
	5.403571260169382e+01
	4.584338930744582e+01
	4.642385021052999e+01
	4.545880014999602e+01
	5.305982057210186e+01
	4.445559996575665e+01
	4.895301708649977e+01

 7	7.000000000000000e-01
	4.945589195854837e+01
	4.410566978051524e+01
	5.604525684634444e+01
	5.036309313541398e+01
	5.318897443046754e+01
	4.880339626250386e+01
	4.833374427992558e+01
	4.947552114970054e+01
	4.494798937971979e+01
	4.912888063143741e+01
	4.541174710206931e+01
	4.993561225235263e+01
	5.129114401799639e+01
	5.369351913140957e+01
	4.870625210643711e+01
	4.988454147112828e+01
	4.302591985885491e+01
	4.930186142052017e+01
	5.689288605747176e+01
	5.254193341315148e+01
	4.526300566745861e+01
	5.181778637578156e+01
	4.764441880968507e+01
	4.697149215589821e+01
	5.607097113944314e+01
	4.936892236837942e+01
	5.193175117122382e+01
	5.916421349923706e+01
	4.708152816054300e+01
	5.250378526764764e+01
	5.158774661863526e+01
	5.017943500139441e+01
	5.649762250719105e+01
	5.344022470721342e+01
	5.557175171622868e+01
	5.503693847797769e+01
	5.418300472903289e+01
	5.387730711633618e+01
	5.025940506673827e+01
	4.582609019931406e+01
	4.474091140540528e+01
	5.480679656937743e+01
	4.569796310448302e+01
	4.688085255999397e+01
	4.857017111628472e+01
	5.125842990218676e+01
	4.732301967186542e+01
	5.076018872053211e+01
	5.006692966385759e+01
	5.237405549450515e+01
	5.384126249078909e+01
	4.431615086184534e+01
	4.935863346004776e+01
	5.094612514385584e+01
	4.679011836801158e+01
	5.011475566021807e+01
	5.029923949443282e+01
	5.077190603999490e+01
	4.960570835702894e+01
	4.495824502593943e+01
	4.885678273367465e+01
	5.202571981516638e+01
	4.301680315912297e+01
	5.109447422479117e+01
	5.400409936018801e+01
	4.424226884409369e+01
	4.321476904693363e+01
	5.524527528750870e+01
	5.171633401223285e+01
	5.718088793777928e+01
	5.150061458870426e+01
	4.643027855173211e+01
	4.722746395667489e+01
	5.467697512220220e+01
	5.489590529670090e+01
	5.404283920190189e+01
	4.173804166423179e+01
	5.757581984913305e+01
	4.647375539560360e+01
	4.563588541963023e+01
	4.748449052343186e+01
	5.327914225047989e+01
	4.973394922464555e+01
	5.353177209174763e+01
	4.696864145145921e+01
	4.995094308998240e+01
	4.880799016718402e+01
	4.801172836907494e+01
	4.794966186814280e+01
	4.990245123962976e+01
	5.285195020644155e+01
	4.480512313812446e+01
	5.516969805320333e+01
	5.406748484291070e+01
	4.586228287810010e+01
	4.644396138922134e+01
	4.547853525383220e+01
	5.308618937230271e+01
	4.447235424196404e+01
	4.897693551373023e+01

 8	7.999999999999999e-01
	4.946325239752988e+01
	4.411167960347181e+01
	5.605486168152663e+01
	5.037069305282595e+01
	5.319759520125769e+01
	4.881053458023364e+01
	4.834089387197591e+01
	4.948316090681902e+01
	4.495415063535265e+01
	4.913636243112859e+01
	4.541807156955137e+01
	4.994287236621646e+01
	5.129925706231229e+01
	5.370249764227449e+01
	4.871333099760382e+01
	4.989181118613784e+01
	4.303158804358466e+01
	4.930935088857372e+01
	5.690271786233615e+01
	5.255036938545523e+01
	4.526926973919280e+01
	5.182595359414150e+01
	4.765108664852788e+01
	4.697812633690896e+01
	5.608067225066444e+01
	4.937634999960445e+01
	5.194003154775171e+01
	5.917515830625771e+01
	4.708821454528717e+01
	5.251179430174351e+01
	5.159591733850061e+01
	5.018709304850189e+01
	5.650778538451743e+01
	5.344875767109470e+01
	5.558126473559951e+01
	5.504617717921596e+01
	5.419163372115995e+01
	5.388617203240835e+01
	5.026711600447642e+01
	4.583250767037003e+01
	4.474688362395289e+01
	5.481627377292421e+01
	4.570434805395266e+01
	4.688769186316454e+01
	4.857747104789964e+01
	5.126658901963776e+01
	4.732999906268960e+01
	5.076810440920510e+01
	5.007468818717955e+01
	5.238232531270192e+01
	5.385018552322995e+01
	4.432211815090547e+01
	4.936598821388084e+01
	5.095377483252123e+01
	4.679667425989270e+01
	5.012281148681415e+01
	5.030676116188143e+01
	5.077967817064165e+01
	4.961319118753119e+01
	4.496435595812331e+01
	4.886407204289836e+01
	5.203413216520647e+01
	4.302248614376672e+01
	5.110240478064718e+01
	5.401308537648333e+01
	4.424822931900659e+01
	4.322048580205175e+01
	5.525444988758868e+01
	5.172419602086725e+01
	5.719077120617557e+01
	5.150868534103471e+01
	4.643683520748484e+01
	4.723419518764756e+01
	5.468569444491374e+01
	5.490527502766693e+01
	5.405173720954846e+01
	4.174338295569972e+01
	5.758623288189496e+01
	4.648025040311285e+01
	4.564220672989669e+01
	4.749116414713716e+01
	5.328759331217517e+01
	4.974139304501490e+01
	5.354019190182270e+01
	4.697541729184245e+01
	4.995838573763889e+01
	4.881532053998942e+01
	4.801856132217997e+01
	4.795659520367784e+01
	4.990990703721020e+01
	5.286054374822066e+01
	4.481121594698281e+01
	5.517903390245998e+01
	5.407636139203773e+01
	4.586864505929690e+01
	4.645051409997599e+01
	4.548481240238846e+01
	5.309480325406662e+01
	4.447828912176237e+01
	4.898404056694169e+01

 9	8.999999999999999e-01
	4.946853259774531e+01
	4.411605726883612e+01
	5.606156971801055e+01
	5.037609613552932e+01
	5.320362392168400e+01
	4.881565064833448e+01
	4.834605218473874e+01
	4.948865426990604e+01
	4.495866767157015e+01
	4.914172053020391e+01
	4.542265582540281e+01
	4.994808559955865e+01
	5.130501356934213e+01
	5.370878621224133e+01
	4.871840169944856e+01
	4.989704097415314e+01
	4.303577235430125e+01
	4.931471571393610e+01
	5.690952427796236e+01
	5.255631449480351e+01
	4.527386963297617e+01
	5.183174882709453e+01
	4.765592777217383e+01
	4.698293182302119e+01
	5.608737796401319e+01
	4.938165831888707e+01
	5.194585756807609e+01
	5.918260679971092e+01
	4.709304713425451e+01
	5.251751986617807e+01
	5.160167454095821e+01
	5.019253233487389e+01
	5.651476124562353e+01
	5.345474175060558e+01
	5.558784436386958e+01
	5.505263098752036e+01
	5.419773792988535e+01
	5.389240080659792e+01
	5.027267508158739e+01
	4.583714542685346e+01
	4.475127536845795e+01
	5.482286692175742e+01
	4.570896196355839e+01
	4.689263686165682e+01
	4.858270439250389e+01
	5.127243726323375e+01
	4.733503227854466e+01
	5.077371546284895e+01
	5.008023528792075e+01
	5.238827056986806e+01
	5.385651868961482e+01
	4.432647344062928e+01
	4.937124627609293e+01
	5.095923325735131e+01
	4.680142483301172e+01
	5.012855138422461e+01
	5.031220993171118e+01
	5.078520758595832e+01
	4.961854134021524e+01
	4.496880721767632e+01
	4.886931188491101e+01
	5.204006825632252e+01
	4.302665731340590e+01
	5.110812872121079e+01
	5.401939630870925e+01
	4.425257784052895e+01
	4.322464519954300e+01
	5.526084770235743e+01
	5.172976277688466e+01
	5.719760728838705e+01
	5.151439713850493e+01
	4.644162533498901e+01
	4.723906801680847e+01
	5.469179487836544e+01
	5.491179308057749e+01
	5.405796545758761e+01
	4.174731842662986e+01
	5.759336376501658e+01
	4.648499395225792e+01
	4.564681520422562e+01
	4.749610905177353e+01
	5.329354004965229e+01
	4.974676496357255e+01
	5.354618713784365e+01
	4.698031642712893e+01
	4.996372051587102e+01
	4.882073311764427e+01
	4.802350525708564e+01
	4.796165376053335e+01
	4.991523437519697e+01
	5.286655459418399e+01
	4.481564093950310e+01
	5.518565307610157e+01
	5.408253746865162e+01
	4.587329587343208e+01
	4.645527279716521e+01
	4.548936957969227e+01
	5.310092988073431e+01
	4.448266988516198e+01
	4.898910867483079e+01

 10	9.999999999999999e-01
	4.947277584480361e+01
	4.411943462345519e+01
	5.606699691734232e+01
	5.038041294351797e+01
	5.320828687397879e+01
	4.881970278617135e+01
	4.835018861907258e+01
	4.949277455516366e+01
	4.496236962041095e+01
	4.914596588810908e+01
	4.542619341322207e+01
	4.995228234361162e+01
	5.130955045559629e+01
	5.371378895062807e+01
	4.872244272459371e+01
	4.990129732372422e+01
	4.303920980130115e+01
	4.931898390680620e+01
	5.691489513048376e+01
	5.256099646750660e+01
	4.527767158201605e+01
	5.183638625555855e+01
	4.765986544161239e+01
	4.698682541353988e+01
	5.609248984647891e+01
	4.938580583210697e+01
	5.195045228502187e+01
	5.918851312238253e+01
	4.709694619310201e+01
	5.252215918318296e+01
	5.160616193049575e+01
	5.019678982390676e+01
	5.652020545452666e+01
	5.345945767850127e+01
	5.559299876941855e+01
	5.505779558148780e+01
	5.420269311647095e+01
	5.389738335132834e+01
	5.027719692830748e+01
	4.584085489510827e+01
	4.475488560308949e+01
	5.482806103914188e+01
	4.571257645940175e+01
	4.689656329441387e+01
	4.858681779123272e+01
	5.127720469503107e+01
	4.733894697041589e+01
	5.077816596369571e+01
	5.008464925381590e+01
	5.239315360539823e+01
	5.386166860199147e+01
	4.432999153948742e+01
	4.937544039626876e+01
	5.096360335002403e+01
	4.680524125004189e+01
	5.013317255980060e+01
	5.031670041399396e+01
	5.078956097460247e+01
	4.962281858667038e+01
	4.497241089778347e+01
	4.887352507670635e+01
	5.204466774632146e+01
	4.303005573915006e+01
	5.111284277925759e+01
	5.402440175241667e+01
	4.425610234403148e+01
	4.322798651604882e+01
	5.526590756292973e+01
	5.173418146291295e+01
	5.720297417765446e+01
	5.151890354149625e+01
	4.644556419043796e+01
	4.724301578042166e+01
	5.469667094764859e+01
	5.491699667746389e+01
	5.406291794754503e+01
	4.175053426528372e+01
	5.759877709867779e+01
	4.648884268783370e+01
	4.565056475460067e+01
	4.750024900726025e+01
	5.329824362209593e+01
	4.975116770918541e+01
	5.355106161598400e+01
	4.698419368536182e+01
	4.996795812912372e+01
	4.882527197886105e+01
	4.802752083637779e+01
	4.796582337936064e+01
	4.991949335140849e+01
	5.287120405085327e+01
	4.481917780510363e+01
	5.519107145295835e+01
	5.408736346801499e+01
	4.587709020841294e+01
	4.645913014389262e+01
	4.549304044999282e+01
	5.310590792691628e+01
	4.448628249419193e+01
	4.899311950000299e+01

 11	1.100000000000000e+00
	4.947658640032805e+01
	4.412247630229856e+01
	5.607183816213983e+01
	5.038427990711051e+01
	5.321243444486188e+01
	4.882333874702146e+01
	4.835390742190108e+01
	4.949645170763202e+01
	4.496571865812000e+01
	4.914977133377069e+01
	4.542936996382785e+01
	4.995605294500979e+01
	5.131360790284209e+01
	5.371825121241027e+01
	4.872606938710155e+01
	4.990512512840464e+01
	4.304232770896280e+01
	4.932281023705982e+01
	5.691967128004794e+01
	5.256517536787742e+01
	4.528111108031681e+01
	5.184053783521120e+01
	4.766341567316471e+01
	4.699033277368459e+01
	5.609701914618091e+01
	4.938952107540575e+01
	5.195455173991439e+01
	5.919374888143606e+01
	4.710045649694301e+01
	5.252632067761522e+01
	5.161016272175068e+01
	5.020059543892422e+01
	5.652503695984391e+01
	5.346366468869928e+01
	5.559757895112034e+01
	5.506240094023916e+01
	5.420712716669657e+01
	5.390183218526587e+01
	5.028126355544982e+01
	4.584419273116346e+01
	4.475815205459536e+01
	5.483268643574981e+01
	4.571582594292516e+01
	4.690009422481957e+01
	4.859050604411996e+01
	5.128148626841326e+01
	4.734245647883696e+01
	5.078214691755199e+01
	5.008860629587592e+01
	5.239754327519700e+01
	5.386628310330963e+01
	4.433317034935943e+01
	4.937920175191346e+01
	5.096752326128029e+01