Title: monte carlo simulation plot
Date: Thu Sep 28 10:20:42  2017
Plotname: monte_carlo
Flags: real
No. Variables: 101
No. Points: 51
Variables:
	0	voltage_sweep	voltage
	1	output_current_0	notype
	2	output_current_1	notype
	3	output_current_2	notype
	4	output_current_3	notype
	5	output_current_4	notype
	6	output_current_5	notype
	7	output_current_6	notype
	8	output_current_7	notype
	9	output_current_8	notype
	10	output_current_9	notype
	11	output_current_10	notype
	12	output_current_11	notype
	13	output_current_12	notype
	14	output_current_13	notype
	15	output_current_14	notype
	16	output_current_15	notype
	17	output_current_16	notype
	18	output_current_17	notype
	19	output_current_18	notype
	20	output_current_19	notype
	21	output_current_20	notype
	22	output_current_21	notype
	23	output_current_22	notype
	24	output_current_23	notype
	25	output_current_24	notype
	26	output_current_25	notype
	27	output_current_26	notype
	28	output_current_27	notype
	29	output_current_28	notype
	30	output_current_29	notype
	31	output_current_30	notype
	32	output_current_31	notype
	33	output_current_32	notype
	34	output_current_33	notype
	35	output_current_34	notype
	36	output_current_35	notype
	37	output_current_36	notype
	38	output_current_37	notype
	39	output_current_38	notype
	40	output_current_39	notype
	41	output_current_40	notype
	42	output_current_41	notype
	43	output_current_42	notype
	44	output_current_43	notype
	45	output_current_44	notype
	46	output_current_45	notype
	47	output_current_46	notype
	48	output_current_47	notype
	49	output_current_48	notype
	50	output_current_49	notype
	51	output_current_50	notype
	52	output_current_51	notype
	53	output_current_52	notype
	54	output_current_53	notype
	55	output_current_54	notype
	56	output_current_55	notype
	57	output_current_56	notype
	58	output_current_57	notype
	59	output_current_58	notype
	60	output_current_59	notype
	61	output_current_60	notype
	62	output_current_61	notype
	63	output_current_62	notype
	64	output_current_63	notype
	65	output_current_64	notype
	66	output_current_65	notype
	67	output_current_66	notype
	68	output_current_67	notype
	69	output_current_68	notype
	70	output_current_69	notype
	71	output_current_70	notype
	72	output_current_71	notype
	73	output_current_72	notype
	74	output_current_73	notype
	75	output_current_74	notype
	76	output_current_75	notype
	77	output_current_76	notype
	78	output_current_77	notype
	79	output_current_78	notype
	80	output_current_79	notype
	81	output_current_80	notype
	82	output_current_81	notype
	83	output_current_82	notype
	84	output_current_83	notype
	85	output_current_84	notype
	86	output_current_85	notype
	87	output_current_86	notype
	88	output_current_87	notype
	89	output_current_88	notype
	90	output_current_89	notype
	91	output_current_90	notype
	92	output_current_91	notype
	93	output_current_92	notype
	94	output_current_93	notype
	95	output_current_94	notype
	96	output_current_95	notype
	97	output_current_96	notype
	98	output_current_97	notype
	99	output_current_98	notype
	100	output_current_99	notype
Values:
 0	0.000000000000000e+00
	-1.604033502502751e+01
	-1.638411939594667e+01
	-1.723794790153621e+01
	-1.679930783789998e+01
	-1.666930726680275e+01
	-1.630643223773275e+01
	-1.648989144401963e+01
	-1.622727374779919e+01
	-1.624270008917288e+01
	-1.599135338062538e+01
	-1.588062279626689e+01
	-1.636662650582568e+01
	-1.653357599918504e+01
	-1.687704449576455e+01
	-1.688887603625469e+01
	-1.655086258595336e+01
	-1.614693834949948e+01
	-1.629156429852166e+01
	-1.619783943300516e+01
	-1.555624110586783e+01
	-1.574656359744870e+01
	-1.582278602383580e+01
	-1.603929430865039e+01
	-1.583170518094407e+01
	-1.599964293252620e+01
	-1.555618571489893e+01
	-1.513287160343487e+01
	-1.527622887416582e+01
	-1.491097533792932e+01
	-1.492030757196412e+01
	-1.493103093693797e+01
	-1.473254247703404e+01
	-1.506080750562846e+01
	-1.509665466261229e+01
	-1.487166285138835e+01
	-1.530649458083898e+01
	-1.507906767187039e+01
	-1.527772618270678e+01
	-1.499342967711787e+01
	-1.533827942922314e+01
	-1.552013563314523e+01
	-1.527722130446938e+01
	-1.555294149821326e+01
	-1.570387269559010e+01
	-1.563563830162504e+01
	-1.518256772641155e+01
	-1.480796398774138e+01
	-1.501834399685941e+01
	-1.513082664517385e+01
	-1.533242133848163e+01
	-1.525107740359235e+01
	-1.525964801986581e+01
	-1.577297221287264e+01
	-1.640144301444749e+01
	-1.692855978679112e+01
	-1.680510199333323e+01
	-1.650769039279529e+01
	-1.630387990724256e+01
	-1.609555151932398e+01
	-1.622927154948238e+01
	-1.698435602150850e+01
	-1.618426232082225e+01
	-1.611883617957649e+01
	-1.624672598456304e+01
	-1.631703971521926e+01
	-1.624855743063858e+01
	-1.623769755199507e+01
	-1.628932731858410e+01
	-1.586213417866933e+01
	-1.650019864785071e+01
	-1.656777228613029e+01
	-1.653731993061306e+01
	-1.690755671413946e+01
	-1.678331078624001e+01
	-1.672209227818481e+01
	-1.659868111048962e+01
	-1.705334965851475e+01
	-1.693947578552452e+01
	-1.675066222051541e+01
	-1.664884679919709e+01
	-1.701821027495942e+01
	-1.753270154230984e+01
	-1.770877309620054e+01
	-1.765742887083079e+01
	-1.786034132562064e+01
	-1.804892867919432e+01
	-1.821457896394940e+01
	-1.841637289244868e+01
	-1.854092901626593e+01
	-1.839369175328029e+01
	-1.803074687594349e+01
	-1.787858766785534e+01
	-1.704579194323410e+01
	-1.688085438124236e+01
	-1.672668738812373e+01
	-1.645115885129497e+01
	-1.647829170927301e+01
	-1.630070162890553e+01
	-1.637606831785537e+01
	-1.639206543692975e+01

 1	1.000000000000000e-01
	-1.604033361335097e+01
	-1.638411797989508e+01
	-1.723794647425026e+01
	-1.679930641631447e+01
	-1.666930584690147e+01
	-1.630643082259505e+01
	-1.648989002651171e+01
	-1.622727233352746e+01
	-1.624269867486040e+01
	-1.599135196957591e+01
	-1.588062138658028e+01
	-1.636662508989524e+01
	-1.653357458116081e+01
	-1.687704307324219e+01
	-1.688887461363381e+01
	-1.655086116759282e+01
	-1.614693693637892e+01
	-1.629156288358089e+01
	-1.619783801933014e+01
	-1.555623970057758e+01
	-1.574656218965341e+01
	-1.582278461504740e+01
	-1.603929289714866e+01
	-1.583170377222796e+01
	-1.599964152169676e+01
	-1.555618430970204e+01
	-1.513287020376414e+01
	-1.527622747264901e+01
	-1.491097394088166e+01
	-1.492030617484039e+01
	-1.493102953978960e+01
	-1.473254108243417e+01
	-1.506080610684317e+01
	-1.509665326330796e+01
	-1.487166145512868e+01
	-1.530649317882396e+01
	-1.507906627268619e+01
	-1.527772478107624e+01
	-1.499342827917011e+01
	-1.533827802672260e+01
	-1.552013422819021e+01
	-1.527721990257460e+01
	-1.555294009294809e+01
	-1.570387128836681e+01
	-1.563563689519341e+01
	-1.518256632576743e+01
	-1.480796259182099e+01
	-1.501834259817061e+01
	-1.513082524033087e+01
	-1.533241993585042e+01
	-1.525107600201016e+01
	-1.525964661807392e+01
	-1.577297080462226e+01
	-1.640144159813821e+01
	-1.692855836357585e+01
	-1.680510057174703e+01
	-1.650768897514728e+01
	-1.630387849230928e+01
	-1.609555010705574e+01
	-1.622927013546505e+01
	-1.698435459762241e+01
	-1.618426090750605e+01
	-1.611883476718753e+01
	-1.624672457058250e+01
	-1.631703830041582e+01
	-1.624855601678603e+01
	-1.623769613828723e+01
	-1.628932590417759e+01
	-1.586213276983607e+01
	-1.650019723073428e+01
	-1.656777086807011e+01
	-1.653731851303691e+01
	-1.690755529173236e+01
	-1.678330936551803e+01
	-1.672209085824776e+01
	-1.659867969206290e+01
	-1.705334823416013e+01
	-1.693947436262732e+01
	-1.675066079995615e+01
	-1.664884537989017e+01
	-1.701820885086686e+01
	-1.753270011157965e+01
	-1.770877166314965e+01
	-1.765742743836110e+01
	-1.786033989039232e+01
	-1.804892724133455e+01
	-1.821457752387974e+01
	-1.841637144975448e+01
	-1.854092757197591e+01
	-1.839369031103011e+01
	-1.803074543855044e+01
	-1.787858623235354e+01
	-1.704579051854498e+01
	-1.688085295871868e+01
	-1.672668596763987e+01
	-1.645115743452442e+01
	-1.647829029212701e+01
	-1.630070021415446e+01
	-1.637606690201159e+01
	-1.639206402081463e+01

 2	2.000000000000000e-01
	-1.604033102162565e+01
	-1.638411533405024e+01
	-1.723794368747597e+01
	-1.679930370345879e+01
	-1.666930315540623e+01
	-1.630642818929970e+01
	-1.648988736393088e+01
	-1.622726971305909e+01
	-1.624269605161170e+01
	-1.599134938541771e+01
	-1.588061881952618e+01
	-1.636662244707779e+01
	-1.653357191143338e+01
	-1.687704034731170e+01
	-1.688887188558630e+01
	-1.655085849534122e+01
	-1.614693432824410e+01
	-1.629156025263134e+01
	-1.619783540300411e+01
	-1.555623718185063e+01
	-1.574655964258195e+01
	-1.582278205646851e+01
	-1.603929030524774e+01
	-1.583170121191616e+01
	-1.599963893557236e+01
	-1.555618179080953e+01
	-1.513286774636867e+01
	-1.527622499463457e+01
	-1.491097151527406e+01
	-1.492030374785176e+01
	-1.493102711111304e+01
	-1.473253868140458e+01
	-1.506080365978421e+01
	-1.509665081124447e+01
	-1.487165903457043e+01
	-1.530649069661557e+01
	-1.507906382330799e+01
	-1.527772230300670e+01
	-1.499342584170249e+01
	-1.533827554004162e+01
	-1.552013171505832e+01
	-1.527721742506071e+01
	-1.555293757475247e+01
	-1.570386874768388e+01
	-1.563563436488571e+01
	-1.518256386183112e+01
	-1.480796018088956e+01
	-1.501834015787856e+01
	-1.513082278393476e+01
	-1.533241745038222e+01
	-1.525107352831599e+01
	-1.525964414331896e+01
	-1.577296825379660e+01
	-1.640143894961362e+01
	-1.692855562911123e+01
	-1.680509785774376e+01
	-1.650768630949165e+01
	-1.630387585902633e+01
	-1.609554750651138e+01
	-1.622926751405555e+01
	-1.698435185366155e+01
	-1.618425829290418e+01
	-1.611883216262648e+01
	-1.624672194584595e+01
	-1.631703566435838e+01
	-1.624855339141486e+01
	-1.623769351462151e+01
	-1.628932327243091e+01
	-1.586213020433782e+01
	-1.650019456524994e+01
	-1.656776819183079e+01
	-1.653731584150423e+01
	-1.690755255937615e+01
	-1.678330665364334e+01
	-1.672208815648337e+01
	-1.659867701071597e+01
	-1.705334547740927e+01
	-1.693947162512313e+01
	-1.675065809412876e+01
	-1.664884269093511e+01
	-1.701820610058883e+01
	-1.753269727225893e+01
	-1.770876879254465e+01
	-1.765742457723501e+01
	-1.786033699302387e+01
	-1.804892430989922e+01
	-1.821457456170537e+01
	-1.841636844926572e+01
	-1.854092454739429e+01
	-1.839368731436407e+01
	-1.803074250971307e+01
	-1.787858333177120e+01
	-1.704578776422997e+01
	-1.688085023202144e+01
	-1.672668326635181e+01
	-1.645115477761760e+01
	-1.647828763091539e+01
	-1.630069758105742e+01
	-1.637606425721246e+01
	-1.639206137362043e+01

 3	3.000000000000000e-01
	-1.604027684246748e+01
	-1.638405884858427e+01
	-1.723788118977609e+01
	-1.679924436826539e+01
	-1.666924473198495e+01
	-1.630637224325037e+01
	-1.648983017032914e+01
	-1.622721432131609e+01
	-1.624264053307578e+01
	-1.599129552799990e+01
	-1.588056569130463e+01
	-1.636656609690148e+01
	-1.653351441044672e+01
	-1.687698044921631e+01
	-1.688881189353970e+01
	-1.655080089280665e+01
	-1.614687945513067e+01
	-1.629150440658652e+01
	-1.619778017581634e+01
	-1.555618609064067e+01
	-1.574650735368295e+01
	-1.582272927999849e+01
	-1.603923610995786e+01
	-1.583164835159950e+01
	-1.599958497718599e+01
	-1.555613068790268e+01
	-1.513281923828097e+01
	-1.527617561650835e+01
	-1.491092435854483e+01
	-1.492025653083199e+01
	-1.493097981709772e+01
	-1.473249255079466e+01
	-1.506075558961885e+01
	-1.509660253316681e+01
	-1.487161207594330e+01
	-1.530644114692336e+01
	-1.507901566352841e+01
	-1.527767292711399e+01
	-1.499337817732090e+01
	-1.533822580550795e+01
	-1.552008086725946e+01
	-1.527716808665407e+01
	-1.555288650702601e+01
	-1.570381672844865e+01
	-1.563558278983348e+01
	-1.518251509511542e+01
	-1.480791365198650e+01
	-1.501829239621147e+01
	-1.513077433981686e+01
	-1.533236777729076e+01
	-1.525102435254394e+01
	-1.525959492815779e+01
	-1.577291581129699e+01
	-1.640138235205969e+01
	-1.692849536771570e+01
	-1.680503846924057e+01
	-1.650762898004124e+01
	-1.630381990448295e+01
	-1.609549294552090e+01
	-1.622921206766188e+01
	-1.698429118314688e+01
	-1.618420312956278e+01
	-1.611877742190024e+01
	-1.624666634355831e+01
	-1.631697957568308e+01
	-1.624849775407866e+01
	-1.623763794963737e+01
	-1.628926736463891e+01
	-1.586207710972773e+01
	-1.650013721931587e+01
	-1.656771039134155e+01
	-1.653725823655572e+01
	-1.690749235859148e+01
	-1.678324732472651e+01
	-1.672202925916424e+01
	-1.659861899039990e+01
	-1.705328423598344e+01
	-1.693941120857595e+01
	-1.675059903756641e+01
	-1.664878435879044e+01
	-1.701814514692178e+01
	-1.753263249811810e+01
	-1.770870267599462e+01
	-1.765735887347201e+01
	-1.786026973668714e+01
	-1.804885559525628e+01
	-1.821450452461648e+01
	-1.841629675759957e+01
	-1.854085181283833e+01
	-1.839361577962164e+01
	-1.803067389397019e+01
	-1.787851593877955e+01
	-1.704572665099910e+01
	-1.688079029846359e+01
	-1.672662441633708e+01
	-1.645109781331306e+01
	-1.647823048466570e+01
	-1.630064162652765e+01
	-1.637600781084538e+01
	-1.639200482902153e+01

 4	4.000000000000000e-01
	-1.603783560138543e+01
	-1.638150930965597e+01
	-1.723504937212170e+01
	-1.679656104430556e+01
	-1.666660422007316e+01
	-1.630384804723948e+01
	-1.648724739662259e+01
	-1.622471617678011e+01
	-1.624013640894080e+01
	-1.598886939430330e+01
	-1.587817380368297e+01
	-1.636402292837897e+01
	-1.653091720214673e+01
	-1.687427068139461e+01
	-1.688609770408678e+01
	-1.654819893537083e+01
	-1.614440564305376e+01
	-1.628898490566358e+01
	-1.619528972258257e+01
	-1.555388980365548e+01
	-1.574415484580586e+01
	-1.582035388216173e+01
	-1.603679408584356e+01
	-1.582926898775957e+01
	-1.599715405026769e+01
	-1.555383383822541e+01
	-1.513064419477316e+01
	-1.527395972894808e+01
	-1.490881278677241e+01
	-1.491814212241953e+01
	-1.492886177738895e+01
	-1.473042912520465e+01
	-1.505860111008441e+01
	-1.509443830182016e+01
	-1.486950976254600e+01
	-1.530421722086733e+01
	-1.507685700104998e+01
	-1.527545715805140e+01
	-1.499124275140336e+01
	-1.533599321444464e+01
	-1.551779602871342e+01
	-1.527495411783564e+01
	-1.555059132637922e+01
	-1.570147687826135e+01
	-1.563326380661260e+01
	-1.518032795986716e+01
	-1.480583157966622e+01
	-1.501615246493786e+01
	-1.512860236076114e+01
	-1.533013810086279e+01
	-1.524881802231252e+01
	-1.525738676441607e+01
	-1.577055611025479e+01
	-1.639882755684809e+01
	-1.692576854477856e+01
	-1.680235262910177e+01
	-1.650503981275943e+01
	-1.630129528177286e+01
	-1.609303375719900e+01
	-1.622671131132430e+01
	-1.698154513976801e+01
	-1.618171564385244e+01
	-1.611630976556664e+01
	-1.624415822495229e+01
	-1.631444860498192e+01
	-1.624598796491426e+01
	-1.623513155669394e+01
	-1.628674488072970e+01
	-1.585968670251610e+01
	-1.649754720541470e+01
	-1.656509905146696e+01
	-1.653465606273475e+01
	-1.690476828809084e+01
	-1.678056418242709e+01
	-1.671936638407348e+01
	-1.659599731223349e+01
	-1.705051130804579e+01
	-1.693667701923897e+01
	-1.674792872941157e+01
	-1.664614807795387e+01
	-1.701538576667495e+01
	-1.752969370369103e+01
	-1.770570084518024e+01
	-1.765437644537089e+01
	-1.785721441697951e+01
	-1.804573182009481e+01
	-1.821131865076677e+01
	-1.841303317396837e+01
	-1.853753924270258e+01
	-1.839035953711346e+01
	-1.802755471850006e+01
	-1.787545420791447e+01
	-1.704295981907444e+01
	-1.687807885679300e+01
	-1.672396384707879e+01
	-1.644852576715245e+01
	-1.647564989932195e+01
	-1.629811698096750e+01
	-1.637346009096575e+01
	-1.638945250816004e+01

 5	5.000000000000000e-01
	-1.592492336422560e+01
	-1.626357787449984e+01
	-1.710404197868752e+01
	-1.667243109551900e+01
	-1.654445752498283e+01
	-1.618709096741395e+01
	-1.636777589459609e+01
	-1.610916634526922e+01
	-1.612430954589762e+01
	-1.587665745724118e+01
	-1.576754942824897e+01
	-1.624638662142550e+01
	-1.641077654319337e+01
	-1.674891591839595e+01
	-1.676053819514204e+01
	-1.642783815983394e+01
	-1.602998364153615e+01
	-1.617244541165553e+01
	-1.608009649120972e+01
	-1.544769825424964e+01
	-1.563535632329585e+01
	-1.571049407665193e+01
	-1.592384564024855e+01
	-1.571922539870375e+01
	-1.588472009738296e+01
	-1.544761622883708e+01
	-1.503007619166357e+01
	-1.517149708040647e+01
	-1.481118947887606e+01
	-1.482038720537155e+01
	-1.483093839675033e+01
	-1.463503994036365e+01
	-1.495898709106793e+01
	-1.499437186004393e+01
	-1.477231609169924e+01
	-1.520138168288412e+01
	-1.497704888662238e+01
	-1.517299997953073e+01
	-1.489251270505884e+01
	-1.523275574338805e+01
	-1.541213534531173e+01
	-1.517258036528319e+01
	-1.544445107372211e+01
	-1.559326526086809e+01
	-1.552601973660105e+01
	-1.507919894269190e+01
	-1.470957705163857e+01
	-1.491721330363459e+01
	-1.502817641693432e+01
	-1.522703575780187e+01
	-1.514679858385558e+01
	-1.515528224829933e+01
	-1.566142402198907e+01
	-1.628065252496614e+01
	-1.679962381598227e+01
	-1.667810619337260e+01
	-1.638527213339329e+01
	-1.618451853957141e+01
	-1.597928968658056e+01
	-1.611104060596482e+01
	-1.685451027523582e+01
	-1.606666006162301e+01
	-1.600217330005496e+01
	-1.612814648177905e+01
	-1.619737788754496e+01
	-1.612989890023286e+01
	-1.611919989047854e+01
	-1.617006748415089e+01
	-1.574913126477069e+01
	-1.637774062963174e+01
	-1.644430398696061e+01
	-1.641428572964834e+01
	-1.677875155169157e+01
	-1.665644323069053e+01
	-1.659618425181395e+01
	-1.647472360291757e+01
	-1.692223181740326e+01
	-1.681019155650209e+01
	-1.662440204872744e+01
	-1.652419766070476e+01
	-1.688773347029176e+01
	-1.739373441009529e+01
	-1.756682401391063e+01
	-1.751639744604787e+01
	-1.771586206951771e+01
	-1.790121192518621e+01
	-1.806392600144930e+01
	-1.826204638663011e+01
	-1.838428722881153e+01
	-1.823971251750692e+01
	-1.788324799122091e+01
	-1.773380515537678e+01
	-1.691496219416685e+01
	-1.675264661084905e+01
	-1.660088810550621e+01
	-1.632955150145753e+01
	-1.635627994827574e+01
	-1.618133927514522e+01
	-1.625561302024302e+01
	-1.627139218402996e+01

 6	6.000000000000000e-01
	-1.206469553139790e+01
	-1.224758010725477e+01
	-1.268537659998336e+01
	-1.246436943960270e+01
	-1.239747496002918e+01
	-1.220711826711177e+01
	-1.230370974050241e+01
	-1.216604319681973e+01
	-1.217324604064448e+01
	-1.203826602960827e+01
	-1.197852760418617e+01
	-1.223906344909758e+01
	-1.232622980351193e+01
	-1.250355879252995e+01
	-1.250917290908394e+01
	-1.233598862813818e+01
	-1.212242050587569e+01
	-1.219923072317952e+01
	-1.214897310890305e+01
	-1.179864347089842e+01
	-1.190417910469843e+01
	-1.194601885978582e+01
	-1.206314201778352e+01
	-1.194974609620834e+01
	-1.204072803017861e+01
	-1.179808350423851e+01
	-1.155929557011781e+01
	-1.164070006088422e+01
	-1.143321283967636e+01
	-1.143836656587301e+01
	-1.144394080672597e+01
	-1.132884745533888e+01
	-1.151834296658485e+01
	-1.153916239746309e+01
	-1.140897891158681e+01
	-1.165840371891035e+01
	-1.152967840807766e+01
	-1.164205231077241e+01
	-1.147985636962844e+01
	-1.167678139204192e+01
	-1.177930510609634e+01
	-1.164329483736219e+01
	-1.179693145949677e+01
	-1.188057607878126e+01
	-1.184339781859403e+01
	-1.158944778649342e+01
	-1.137459098804027e+01
	-1.149645732097711e+01
	-1.156043534736603e+01
	-1.167460907523543e+01
	-1.162863905546785e+01
	-1.163406386623146e+01
	-1.191934995071429e+01
	-1.225694621812052e+01
	-1.252990728568103e+01
	-1.246681571220967e+01
	-1.231243682922102e+01
	-1.220466703001031e+01
	-1.209364189258136e+01
	-1.216533552825397e+01
	-1.255776658392240e+01
	-1.214057737377546e+01
	-1.210503562051117e+01
	-1.217295531849273e+01
	-1.220969821953039e+01
	-1.217295469291857e+01
	-1.216715715757149e+01
	-1.219475936183395e+01
	-1.196471236616641e+01
	-1.230563882594759e+01
	-1.234135590950584e+01
	-1.232487085119305e+01
	-1.251551254811437e+01
	-1.245169989289772e+01
	-1.242029230731443e+01
	-1.235717234725380e+01
	-1.258947838138369e+01
	-1.253222555389584e+01
	-1.243672587669129e+01
	-1.238472881501747e+01
	-1.257320474220939e+01
	-1.282668546869740e+01
	-1.291143446236057e+01
	-1.288761659984138e+01
	-1.298477837419022e+01
	-1.307408599121610e+01
	-1.315056966934492e+01
	-1.324163419585344e+01
	-1.329678408823192e+01
	-1.323027649179160e+01
	-1.306382602734154e+01
	-1.299361395268831e+01
	-1.258873360780622e+01
	-1.250514877994282e+01
	-1.242600284385195e+01
	-1.228189071322594e+01
	-1.229627116615791e+01
	-1.220206741233048e+01
	-1.224267250311615e+01
	-1.225154738490418e+01

 7	7.000000000000000e-01
	1.861501925253419e+01
	1.917355099583621e+01
	2.056201343946932e+01
	1.985025782113761e+01
	1.963900552589951e+01
	1.904822433795985e+01
	1.934655534390330e+01
	1.892114734092902e+01
	1.894450023302904e+01
	1.853536687885564e+01
	1.835583942955698e+01
	1.914632925477787e+01
	1.941704956096251e+01
	1.997562915636372e+01
	1.999412754280067e+01
	1.944644864413848e+01
	1.878921685310046e+01
	1.902403032589642e+01
	1.887089058421174e+01
	1.782581126780134e+01
	1.813601147465272e+01
	1.826012836708330e+01
	1.861162210371801e+01
	1.827267950614326e+01
	1.854538709643181e+01
	1.782482585627434e+01
	1.713589698483423e+01
	1.736889153630087e+01
	1.677757165736891e+01
	1.679233642238301e+01
	1.680873408200789e+01
	1.648669661922400e+01
	1.701919139039717e+01
	1.707795088501491e+01
	1.671127377827878e+01
	1.741910915104046e+01
	1.705032612939736e+01
	1.737217262346874e+01
	1.691003225415884e+01
	1.747154911537621e+01
	1.776836233106235e+01
	1.737390985068948e+01
	1.782065153091121e+01
	1.806635953713828e+01
	1.795618764833639e+01
	1.721974946533973e+01
	1.661207977179821e+01
	1.695428927401742e+01
	1.713641244729647e+01
	1.746391700863810e+01
	1.733163820707992e+01
	1.734652834371020e+01
	1.818012382082309e+01
	1.920214084993139e+01
	2.005956475939801e+01
	1.985876101771546e+01
	1.937448513649746e+01
	1.904217293785863e+01
	1.870352388017368e+01
	1.892134088688949e+01
	2.014945888244743e+01
	1.884682653566583e+01
	1.873949906939025e+01
	1.894684718180485e+01
	1.906021932005313e+01
	1.894814047095662e+01
	1.893044323696238e+01
	1.901471007327439e+01
	1.831936996613936e+01
	1.935729442150911e+01
	1.946795228159434e+01
	1.941737295020668e+01
	2.001892373609294e+01
	1.981644874476589e+01
	1.971707554857214e+01
	1.951774982573470e+01
	2.025605230728874e+01
	2.007164578372132e+01
	1.976653115601516e+01
	1.960198112076358e+01
	2.020151645296760e+01
	2.103378160112701e+01
	2.131853230745806e+01
	2.123690123064844e+01
	2.156574825835288e+01
	2.187168945923519e+01
	2.213857682894357e+01
	2.246200981900748e+01
	2.266088567819840e+01
	2.242355186291715e+01
	2.183918019737794e+01
	2.159560719973443e+01
	2.024915732469258e+01
	1.998120377629090e+01
	1.973038609655170e+01
	1.928093101337009e+01
	1.932532232234338e+01
	1.903542016196096e+01
	1.915930891304557e+01
	1.918609267156209e+01

 8	7.999999999999999e-01
	4.787002686937738e+01
	4.797424056324258e+01
	4.820452238308260e+01
	4.808902646040264e+01
	4.805297014649515e+01
	4.795198630657080e+01
	4.800596039150518e+01
	4.792950944256459e+01
	4.793274670343004e+01
	4.785456982377193e+01
	4.781957161802315e+01
	4.797006835675074e+01
	4.801812942273467e+01
	4.810952234047949e+01
	4.811219009015456e+01
	4.801936152608704e+01
	4.790389440522111e+01
	4.794752073112905e+01
	4.791856605740145e+01
	4.770872982992880e+01
	4.777392888032936e+01
	4.779924455000779e+01
	4.786821492789207e+01
	4.780037992645997e+01
	4.785414056742427e+01
	4.770784529545355e+01
	4.755417984189837e+01
	4.760745416255113e+01
	4.747091129165179e+01
	4.747415958064557e+01
	4.747725562062373e+01
	4.739779219838811e+01
	4.752721654479424e+01
	4.754143641166943e+01
	4.745258099928755e+01
	4.761954395875498e+01
	4.753575921618069e+01
	4.760887423402463e+01
	4.750157366657453e+01
	4.763184235378938e+01
	4.769742374478080e+01
	4.761128987084351e+01
	4.770778720826905e+01
	4.775945506268606e+01
	4.773714994002106e+01
	4.757604606577650e+01
	4.743180299773616e+01
	4.751527186839539e+01
	4.755744023645074e+01
	4.763161748214141e+01
	4.760193946935579e+01
	4.760604881936258e+01
	4.778375831043667e+01
	4.797968447546830e+01
	4.812358921377994e+01
	4.808993737890351e+01
	4.801029939813009e+01
	4.794965021600670e+01
	4.788617424774223e+01
	4.792757180512672e+01
	4.813795817328993e+01
	4.791272991850682e+01
	4.789176449343164e+01
	4.793042225299233e+01
	4.795076750778924e+01
	4.792952727817514e+01
	4.792619983544338e+01
	4.794207257016322e+01
	4.780773451400628e+01
	4.800406683811187e+01
	4.802416896235945e+01
	4.801455731697053e+01
	4.811306820241980e+01
	4.807865816975188e+01
	4.806174937395581e+01
	4.803262153873854e+01
	4.815222013548494e+01
	4.812232917035337e+01
	4.807206761147494e+01
	4.804430699822169e+01
	4.814480637047047e+01
	4.827356334217465e+01
	4.831543488427571e+01
	4.830425879449221e+01
	4.835200951040222e+01
	4.839540453721485e+01
	4.843154423097760e+01
	4.847362494899548e+01
	4.849868727711264e+01
	4.846773146458371e+01
	4.838942331509544e+01
	4.835641935879634e+01
	4.815415242672564e+01
	4.811010025254629e+01
	4.806757186333623e+01
	4.799257929155865e+01
	4.800069703651852e+01
	4.794737045805859e+01
	4.797092037617497e+01
	4.797627383107924e+01

 9	8.999999999999999e-01
	4.990116600115558e+01
	4.990487581540514e+01
	4.991499410153994e+01
	4.991037013813450e+01
	4.990893145591994e+01
	4.990446935348866e+01
	4.990656218519562e+01
	4.990435391570798e+01
	4.990369951274136e+01
	4.990059331370823e+01
	4.989955951461297e+01
	4.990526060149251e+01
	4.990680844719826e+01
	4.991082318056752e+01
	4.991063459260189e+01
	4.990759780157477e+01
	4.990281590301954e+01
	4.990429167152188e+01
	4.990286258268788e+01
	4.989420418135983e+01
	4.989698994446605e+01
	4.989800928278783e+01
	4.990028947463338e+01
	4.989708013281350e+01
	4.989890473616176e+01
	4.989370593749806e+01
	4.988743889816973e+01
	4.988948527956758e+01
	4.988544510109085e+01
	4.988534823383615e+01
	4.988488400515623e+01
	4.988189814021342e+01
	4.988661833121002e+01
	4.988745717369917e+01
	4.988330316917641e+01
	4.989050283510746e+01
	4.988776965327020e+01
	4.989000400335996e+01
	4.988579746815891e+01
	4.989138092774254e+01
	4.989442869408233e+01
	4.989146217786710e+01
	4.989427494032375e+01
	4.989633855396653e+01
	4.989590637286713e+01
	4.988997142156455e+01
	4.988493728333270e+01
	4.988841968833087e+01
	4.988966928654533e+01
	4.989236494546361e+01
	4.989122962810102e+01
	4.989188172154263e+01
	4.989792735525390e+01
	4.990527509842285e+01
	4.991150634110954e+01
	4.991002972066016e+01
	4.990628974039022e+01
	4.990351601011013e+01
	4.990116241563815e+01
	4.990289789330365e+01
	4.991180734032612e+01
	4.990171387494723e+01
	4.990046830400631e+01
	4.990165227526683e+01
	4.990198200702253e+01
	4.990080075327965e+01
	4.990065225842036e+01
	4.990142521852214e+01
	4.989592619163658e+01
	4.990375465028946e+01
	4.990494220909527e+01
	4.990405160308406e+01
	4.990828856901448e+01
	4.990655059973627e+01
	4.990589140372726e+01
	4.990507914438316e+01
	4.991013451769707e+01
	4.990906972766005e+01
	4.990768313166185e+01
	4.990695880103537e+01
	4.991088844181130e+01
	4.991569610830788e+01
	4.991753780397079e+01
	4.991757231872959e+01
	4.992006433885006e+01
	4.992262874625797e+01
	4.992430439485317e+01
	4.992592682023399e+01
	4.992677682979440e+01
	4.992496539044507e+01
	4.992121642496540e+01
	4.992040894765110e+01
	4.991246167800254e+01
	4.991059291717288e+01
	4.990872206036771e+01
	4.990485708682036e+01
	4.990530222944143e+01
	4.990269021356928e+01
	4.990422534487516e+01
	4.990478403092415e+01

 10	9.999999999999999e-01
	4.997994552768775e+01
	4.998015809494174e+01
	4.998226311228910e+01
	4.998156752748719e+01
	4.998135139873793e+01
	4.998048399645274e+01
	4.998075457827959e+01
	4.998109448342975e+01
	4.998036375474642e+01
	4.997989127352557e+01
	4.998001942400489e+01
	4.998066148703987e+01
	4.998059866798376e+01
	4.998133978464480e+01
	4.998107242231826e+01
	4.998115551843988e+01
	4.998044223338971e+01
	4.998045709108669e+01
	4.998001624476994e+01
	4.997841882502054e+01
	4.997901261813557e+01
	4.997918193606655e+01
	4.997916190556652e+01
	4.997825212595725e+01
	4.997828186703952e+01
	4.997796788472719e+01
	4.997683596077831e+01
	4.997710960373873e+01
	4.997756140313736e+01
	4.997736546230503e+01
	4.997682083484911e+01
	4.997646548803417e+01
	4.997690353676734e+01
	4.997725887047728e+01
	4.997608162510419e+01
	4.997770371645534e+01
	4.997773960495162e+01
	4.997756368055308e+01
	4.997692809538080e+01
	4.997815636020538e+01
	4.997899502857273e+01
	4.997888760342935e+01
	4.997851692290076e+01
	4.997884956630526e+01
	4.997914684220745e+01
	4.997857572213583e+01
	4.997830977007381e+01
	4.997901175401751e+01
	4.997887551967724e+01
	4.997910804076690e+01
	4.997896125293344e+01
	4.997945578732357e+01
	4.997959834588369e+01
	4.998036603513010e+01
	4.998154022044819e+01
	4.998121156159200e+01
	4.998035335795090e+01
	4.997964395172146e+01
	4.997942403352623e+01
	4.997976069644223e+01
	4.998136394233126e+01
	4.997910019704592e+01
	4.997857657098064e+01
	4.997847050233984e+01
	4.997813094315982e+01
	4.997767822523513e+01
	4.997764251488844e+01
	4.997787506590839e+01
	4.997690316640151e+01
	4.997811467337215e+01
	4.997860819793664e+01
	4.997806085768742e+01
	4.997878436124829e+01
	4.997822608420986e+01
	4.997813941762018e+01
	4.997846598688668e+01
	4.997929031269684e+01
	4.997923678001540e+01
	4.997953343863988e+01
	4.997973562220390e+01
	4.998025837884612e+01
	4.998068953252608e+01
	4.998109237523235e+01
	4.998149117564979e+01
	4.998232369684249e+01
	4.998336302424963e+01
	4.998378488120735e+01
	4.998395887531844e+01
	4.998394984193651e+01
	4.998323194588853e+01
	4.998220481843149e+01
	4.998251013894792e+01
	4.998146729544977e+01
	4.998110005224324e+01
	4.998067887375603e+01
	4.997954866099258e+01
	4.997971454433254e+01
	4.997892313465336e+01
	4.997964020866991e+01
	4.998000445908419e+01

 11	1.100000000000000e+00
	4.998796037623021e+01
	4.998791899270169e+01
	4.998932845782667e+01
	4.998895594881269e+01
	4.998884002059724e+01
	4.998827071092426e+01
	4.998839692978115e+01
	4.998888449311787e+01
	4.998820365415207e+01
	4.998794540249663e+01
	4.998814310969612e+01
	4.998839314566301e+01
	4.998822522124041e+01
	4.998869900552936e+01
	4.998844646845613e+01
	4.998873686664089e+01
	4.998834176026720e+01
	4.998825607815758e+01
	4.998791516011154e+01
	4.998691411251925e+01
	4.998731617100241e+01
	4.998741539266648e+01
	4.998723998195241e+01
	4.998655153349370e+01
	4.998645653486077e+01
	4.998649810471654e+01
	4.998579490589177e+01