Title: monte carlo simulation plot
Date: Fri Sep 29 11:08:14  2017
Plotname: monte_carlo
Flags: real
No. Variables: 101
No. Points: 51
Variables:
	0	voltage_sweep	voltage
	1	output_current_0	notype
	2	output_current_1	notype
	3	output_current_2	notype
	4	output_current_3	notype
	5	output_current_4	notype
	6	output_current_5	notype
	7	output_current_6	notype
	8	output_current_7	notype
	9	output_current_8	notype
	10	output_current_9	notype
	11	output_current_10	notype
	12	output_current_11	notype
	13	output_current_12	notype
	14	output_current_13	notype
	15	output_current_14	notype
	16	output_current_15	notype
	17	output_current_16	notype
	18	output_current_17	notype
	19	output_current_18	notype
	20	output_current_19	notype
	21	output_current_20	notype
	22	output_current_21	notype
	23	output_current_22	notype
	24	output_current_23	notype
	25	output_current_24	notype
	26	output_current_25	notype
	27	output_current_26	notype
	28	output_current_27	notype
	29	output_current_28	notype
	30	output_current_29	notype
	31	output_current_30	notype
	32	output_current_31	notype
	33	output_current_32	notype
	34	output_current_33	notype
	35	output_current_34	notype
	36	output_current_35	notype
	37	output_current_36	notype
	38	output_current_37	notype
	39	output_current_38	notype
	40	output_current_39	notype
	41	output_current_40	notype
	42	output_current_41	notype
	43	output_current_42	notype
	44	output_current_43	notype
	45	output_current_44	notype
	46	output_current_45	notype
	47	output_current_46	notype
	48	output_current_47	notype
	49	output_current_48	notype
	50	output_current_49	notype
	51	output_current_50	notype
	52	output_current_51	notype
	53	output_current_52	notype
	54	output_current_53	notype
	55	output_current_54	notype
	56	output_current_55	notype
	57	output_current_56	notype
	58	output_current_57	notype
	59	output_current_58	notype
	60	output_current_59	notype
	61	output_current_60	notype
	62	output_current_61	notype
	63	output_current_62	notype
	64	output_current_63	notype
	65	output_current_64	notype
	66	output_current_65	notype
	67	output_current_66	notype
	68	output_current_67	notype
	69	output_current_68	notype
	70	output_current_69	notype
	71	output_current_70	notype
	72	output_current_71	notype
	73	output_current_72	notype
	74	output_current_73	notype
	75	output_current_74	notype
	76	output_current_75	notype
	77	output_current_76	notype
	78	output_current_77	notype
	79	output_current_78	notype
	80	output_current_79	notype
	81	output_current_80	notype
	82	output_current_81	notype
	83	output_current_82	notype
	84	output_current_83	notype
	85	output_current_84	notype
	86	output_current_85	notype
	87	output_current_86	notype
	88	output_current_87	notype
	89	output_current_88	notype
	90	output_current_89	notype
	91	output_current_90	notype
	92	output_current_91	notype
	93	output_current_92	notype
	94	output_current_93	notype
	95	output_current_94	notype
	96	output_current_95	notype
	97	output_current_96	notype
	98	output_current_97	notype
	99	output_current_98	notype
	100	output_current_99	notype
Values:
 0	0.000000000000000e+00
	-1.604033502502790e+01
	-1.614331996891590e+01
	-1.593702259499052e+01
	-1.601847842532819e+01
	-1.630573986558164e+01
	-1.613090116189487e+01
	-1.594281627629666e+01
	-1.605572084547491e+01
	-1.617653342865203e+01
	-1.611807402773043e+01
	-1.581488340279466e+01
	-1.577549457978002e+01
	-1.584223827030474e+01
	-1.603882003757741e+01
	-1.628404950029986e+01
	-1.612458143114637e+01
	-1.599712910157025e+01
	-1.610806119090890e+01
	-1.596164586373159e+01
	-1.627676204201766e+01
	-1.586885548105709e+01
	-1.604736554621677e+01
	-1.602780644641900e+01
	-1.608981426440864e+01
	-1.615233755791393e+01
	-1.603744603470416e+01
	-1.584044790410564e+01
	-1.594059309234447e+01
	-1.597701661810699e+01
	-1.614713413870926e+01
	-1.613957818075114e+01
	-1.625703581106518e+01
	-1.593704162309259e+01
	-1.623038119821411e+01
	-1.603791520117772e+01
	-1.607897572590494e+01
	-1.605902660848498e+01
	-1.623115071995117e+01
	-1.598878125900956e+01
	-1.583231538606829e+01
	-1.609470154354840e+01
	-1.614756946249116e+01
	-1.636202193977912e+01
	-1.608969789581035e+01
	-1.619368657978113e+01
	-1.623737210219796e+01
	-1.610949923402222e+01
	-1.634622683870713e+01
	-1.602864994854555e+01
	-1.603592818846220e+01
	-1.598013627012037e+01
	-1.608718130920550e+01
	-1.576415164530224e+01
	-1.601195396139228e+01
	-1.610762463260077e+01
	-1.593340131389261e+01
	-1.596004398223521e+01
	-1.596783046074770e+01
	-1.587048573345958e+01
	-1.603493908293111e+01
	-1.612221638978081e+01
	-1.575606779131868e+01
	-1.579959555769257e+01
	-1.605962430077852e+01
	-1.615642971173164e+01
	-1.624970978828675e+01
	-1.608976820320935e+01
	-1.607213715114850e+01
	-1.599939511060954e+01
	-1.596118710473665e+01
	-1.628970903505881e+01
	-1.604303098826424e+01
	-1.583378066072087e+01
	-1.580159582542359e+01
	-1.587963707296462e+01
	-1.588374033286960e+01
	-1.599267088152431e+01
	-1.611888282151688e+01
	-1.586353209066766e+01
	-1.620681125117366e+01
	-1.615594443874184e+01
	-1.591633370941712e+01
	-1.611157508408148e+01
	-1.596324107358852e+01
	-1.620597912905987e+01
	-1.601374665066904e+01
	-1.629204477214243e+01
	-1.588539222034867e+01
	-1.636810285974090e+01
	-1.620849106842758e+01
	-1.602797347234316e+01
	-1.591358968629272e+01
	-1.609863478263789e+01
	-1.584927341223823e+01
	-1.581797280839468e+01
	-1.611731731400541e+01
	-1.592972936131520e+01
	-1.604615080789709e+01
	-1.602649103824506e+01
	-1.612688361172299e+01

 1	1.000000000000000e-01
	-1.604033361335049e+01
	-1.614331855591588e+01
	-1.593702118464699e+01
	-1.601847701405276e+01
	-1.630573845052795e+01
	-1.613089974905265e+01
	-1.594281486591133e+01
	-1.605571943358712e+01
	-1.617653201522652e+01
	-1.611807261502288e+01
	-1.581488199392275e+01
	-1.577549317141233e+01
	-1.584223686115602e+01
	-1.603881862593810e+01
	-1.628404808542151e+01
	-1.612458001842847e+01
	-1.599712769045480e+01
	-1.610805977841065e+01
	-1.596164445307472e+01
	-1.627676062727038e+01
	-1.586885407149693e+01
	-1.604736413441129e+01
	-1.602780503485624e+01
	-1.608981285204922e+01
	-1.615233614478461e+01
	-1.603744462308693e+01
	-1.584044649512416e+01
	-1.594059168199737e+01
	-1.597701520718465e+01
	-1.614713272568686e+01
	-1.613957676786677e+01
	-1.625703439663569e+01
	-1.593704021276621e+01
	-1.623037978408024e+01
	-1.603791378952955e+01
	-1.607897431377305e+01
	-1.605902519658722e+01
	-1.623114930583836e+01
	-1.598877984801708e+01
	-1.583231397697616e+01
	-1.609470013117246e+01
	-1.614756804945458e+01
	-1.636202052394079e+01
	-1.608969648353992e+01
	-1.619368516613269e+01
	-1.623737068799520e+01
	-1.610949782149243e+01
	-1.634622542313348e+01
	-1.602864853702814e+01
	-1.603592677683083e+01
	-1.598013485913862e+01
	-1.608717989689718e+01
	-1.576415023724827e+01
	-1.601195255009778e+01
	-1.610762322012249e+01
	-1.593339990359934e+01
	-1.596004257169431e+01
	-1.596782905005399e+01
	-1.587048432391444e+01
	-1.603493767130389e+01
	-1.612221497702840e+01
	-1.575606638325496e+01
	-1.579959414910627e+01
	-1.605962288883816e+01
	-1.615642829860991e+01
	-1.624970837397578e+01
	-1.608976679088525e+01
	-1.607213573906083e+01
	-1.599939369951782e+01
	-1.596118569407416e+01
	-1.628970762027581e+01
	-1.604302957658065e+01
	-1.583377925158397e+01
	-1.580159441665060e+01
	-1.587963566327451e+01
	-1.588373892316015e+01
	-1.599266947044406e+01
	-1.611888140884771e+01
	-1.586353068128034e+01
	-1.620680983740242e+01
	-1.615594302565503e+01
	-1.591633229936948e+01
	-1.611157367150102e+01
	-1.596323966291056e+01
	-1.620597771519914e+01
	-1.601374523929826e+01
	-1.629204335727662e+01
	-1.588539081068016e+01
	-1.636810144382509e+01
	-1.620848965462106e+01
	-1.602797206076652e+01
	-1.591358827627357e+01
	-1.609863337026063e+01
	-1.584927200303826e+01
	-1.581797139955439e+01
	-1.611731590130237e+01
	-1.592972795108548e+01
	-1.604614939611546e+01
	-1.602648962674222e+01
	-1.612688219900895e+01

 2	2.000000000000000e-01
	-1.604033102162810e+01
	-1.614331595766551e+01
	-1.593701861539259e+01
	-1.601847447514809e+01
	-1.630573584607120e+01
	-1.613089713663665e+01
	-1.594281227749918e+01
	-1.605571683949312e+01
	-1.617652942117926e+01
	-1.611806999910863e+01
	-1.581487938837064e+01
	-1.577549059240101e+01
	-1.584223427879598e+01
	-1.603881603261567e+01
	-1.628404546512972e+01
	-1.612457742601942e+01
	-1.599712507840993e+01
	-1.610805718660462e+01
	-1.596164185567420e+01
	-1.627675801684067e+01
	-1.586885147827340e+01
	-1.604736155275903e+01
	-1.602780243511878e+01
	-1.608981025943319e+01
	-1.615233355537290e+01
	-1.603744205203035e+01
	-1.584044394293555e+01
	-1.594058910754274e+01
	-1.597701262773680e+01
	-1.614713012353948e+01
	-1.613957417880017e+01
	-1.625703179615428e+01
	-1.593703762484838e+01
	-1.623037717888901e+01
	-1.603791120722882e+01
	-1.607897171585239e+01
	-1.605902259219324e+01
	-1.623114670035213e+01
	-1.598877723782817e+01
	-1.583231136427485e+01
	-1.609469755719650e+01
	-1.614756545173073e+01
	-1.636201791812635e+01
	-1.608969389996104e+01
	-1.619368256759147e+01
	-1.623736809193632e+01
	-1.610949521723265e+01
	-1.634622283662949e+01
	-1.602864595903412e+01
	-1.603592418805131e+01
	-1.598013226511487e+01
	-1.608717731470349e+01
	-1.576414766838714e+01
	-1.601194997490986e+01
	-1.610762063268198e+01
	-1.593339733654071e+01
	-1.596003999051169e+01
	-1.596782646488041e+01
	-1.587048171231446e+01
	-1.603493507767098e+01
	-1.612221238786655e+01
	-1.575606380137614e+01
	-1.579959156135931e+01
	-1.605962029418504e+01
	-1.615642570329318e+01
	-1.624970577530445e+01
	-1.608976419429518e+01
	-1.607213316096995e+01
	-1.599939114668016e+01
	-1.596118311237918e+01
	-1.628970503221397e+01
	-1.604302700114143e+01
	-1.583377666596790e+01
	-1.580159179398899e+01
	-1.587963305980579e+01
	-1.588373631999464e+01
	-1.599266687815538e+01
	-1.611887882461783e+01
	-1.586352809876059e+01
	-1.620680726008210e+01
	-1.615594045624247e+01
	-1.591632971074697e+01
	-1.611157110113102e+01
	-1.596323707642942e+01
	-1.620597510899033e+01
	-1.601374263568137e+01
	-1.629204075527457e+01
	-1.588538824020076e+01
	-1.636809883325649e+01
	-1.620848706533722e+01
	-1.602796945387238e+01
	-1.591358569366933e+01
	-1.609863080058949e+01
	-1.584926942422170e+01
	-1.581796880574353e+01
	-1.611731329368314e+01
	-1.592972536842421e+01
	-1.604614680452597e+01
	-1.602648700659508e+01
	-1.612687963096075e+01

 3	3.000000000000000e-01
	-1.604027684247013e+01
	-1.614326153706195e+01
	-1.593696541586901e+01
	-1.601842271955649e+01
	-1.630568122943735e+01
	-1.613084205330199e+01
	-1.594275819423843e+01
	-1.605566256007090e+01
	-1.617647521200954e+01
	-1.611801474696937e+01
	-1.581482444633065e+01
	-1.577543685391813e+01
	-1.584218041943728e+01
	-1.603876177775346e+01
	-1.628399010802690e+01
	-1.612452326123147e+01
	-1.599706993549307e+01
	-1.610800303940148e+01
	-1.596158736820133e+01
	-1.627670311020578e+01
	-1.586879713569608e+01
	-1.604730784453904e+01
	-1.602774788108274e+01
	-1.608975607061106e+01
	-1.615227954667623e+01
	-1.603738882498002e+01
	-1.584039147168842e+01
	-1.594053566685596e+01
	-1.597695898208148e+01
	-1.614707552315523e+01
	-1.613952017658547e+01
	-1.625697733510002e+01
	-1.593698356283744e+01
	-1.623032248661236e+01
	-1.603785746257865e+01
	-1.607891726998826e+01
	-1.605896783592257e+01
	-1.623109199414525e+01
	-1.598872217322847e+01
	-1.583225609984255e+01
	-1.609464422997891e+01
	-1.614751105622863e+01
	-1.636196327319243e+01
	-1.608964012426405e+01
	-1.619362816226703e+01
	-1.623731382476454e+01
	-1.610944049566138e+01
	-1.634616907293531e+01
	-1.602859240564492e+01
	-1.603587014339891e+01
	-1.598007794591281e+01
	-1.608712360415641e+01
	-1.576409438473159e+01
	-1.601189654425790e+01
	-1.610756668783969e+01
	-1.593334423489786e+01
	-1.595998624850698e+01
	-1.596777254458904e+01
	-1.587042651874451e+01
	-1.603488080823391e+01
	-1.612215837681886e+01
	-1.575600991420234e+01
	-1.579953742775418e+01
	-1.605956599226940e+01
	-1.615637142216830e+01
	-1.624965139211334e+01
	-1.608970981928038e+01
	-1.607207962984149e+01
	-1.599933873969439e+01
	-1.596112934980374e+01
	-1.628965116099579e+01
	-1.604297357564521e+01
	-1.583372265550676e+01
	-1.580153605638198e+01
	-1.587957824865543e+01
	-1.588368152373888e+01
	-1.599261264591176e+01
	-1.611882503549383e+01
	-1.586347424373974e+01
	-1.620675384032082e+01
	-1.615588737111005e+01
	-1.591627560067349e+01
	-1.611151794763957e+01
	-1.596318309477769e+01
	-1.620592035721625e+01
	-1.601368789396508e+01
	-1.629198624237883e+01
	-1.588533495282219e+01
	-1.636804397102542e+01
	-1.620843309301731e+01
	-1.602791456915229e+01
	-1.591353186369696e+01
	-1.609857767336181e+01
	-1.584921573153519e+01
	-1.581791440396806e+01
	-1.611725842509198e+01
	-1.592967154321003e+01
	-1.604609263619716e+01
	-1.602643150448716e+01
	-1.612682659247082e+01

 4	4.000000000000000e-01
	-1.603783560138761e+01
	-1.614080900791852e+01
	-1.593457020235763e+01
	-1.601609543340372e+01
	-1.630321954517753e+01
	-1.612835834059134e+01
	-1.594032143072474e+01
	-1.605321660594519e+01
	-1.617403261421252e+01
	-1.611552306840777e+01
	-1.581234726776199e+01
	-1.577301624079745e+01
	-1.583975412662202e+01
	-1.603631697110595e+01
	-1.628149358912477e+01
	-1.612208272170821e+01
	-1.599458336373221e+01
	-1.610556330577706e+01
	-1.595913158066515e+01
	-1.627422777134196e+01
	-1.586634814090639e+01
	-1.604488874310574e+01
	-1.602528902192241e+01
	-1.608731442551028e+01
	-1.614984634533018e+01
	-1.603499234846311e+01
	-1.583803046139067e+01
	-1.593812910077373e+01
	-1.597454280635774e+01
	-1.614461454071464e+01
	-1.613708730307891e+01
	-1.625452293752394e+01
	-1.593454780694484e+01
	-1.622785720509498e+01
	-1.603543665896197e+01
	-1.607646348837364e+01
	-1.605649944194488e+01
	-1.622862606121036e+01
	-1.598623924037294e+01
	-1.582976372699047e+01
	-1.609224307951186e+01
	-1.614505968775519e+01
	-1.635950027862137e+01
	-1.608721788769613e+01
	-1.619117637900932e+01
	-1.623486853408269e+01
	-1.610697375686972e+01
	-1.634374752021743e+01
	-1.602618056116226e+01
	-1.603343523503126e+01
	-1.597763004261590e+01
	-1.608470443027653e+01
	-1.576169512737846e+01
	-1.600949051824084e+01
	-1.610513650044355e+01
	-1.593095360385759e+01
	-1.595756553315373e+01
	-1.596534343982981e+01
	-1.586793749082523e+01
	-1.603243533135574e+01
	-1.611972511715436e+01
	-1.575358224415514e+01
	-1.579709821088579e+01
	-1.605711899754042e+01
	-1.615392543545483e+01
	-1.624720063856514e+01
	-1.608725939960461e+01
	-1.606966886571551e+01
	-1.599698083177702e+01
	-1.595870763010878e+01
	-1.628722450569696e+01
	-1.604056778679942e+01
	-1.583128924889925e+01
	-1.579902145621382e+01
	-1.587710720566436e+01
	-1.588121118716878e+01
	-1.599016887609573e+01
	-1.611640216037138e+01
	-1.586104817471358e+01
	-1.620434837877468e+01
	-1.615349763029593e+01
	-1.591383751836998e+01
	-1.610912494764707e+01
	-1.596075109748506e+01
	-1.620345226160202e+01
	-1.601122020554218e+01
	-1.628952940367161e+01
	-1.588293556410155e+01
	-1.636557073249244e+01
	-1.620600163845933e+01
	-1.602544015238526e+01
	-1.591110701484697e+01
	-1.609618595101009e+01
	-1.584679729084355e+01
	-1.581546260220254e+01
	-1.611478480095474e+01
	-1.592724688335397e+01
	-1.604365190284593e+01
	-1.602392802250095e+01
	-1.612443902624998e+01

 5	5.000000000000000e-01
	-1.592492336422909e+01
	-1.602736218936884e+01
	-1.582378217001163e+01
	-1.590843059144914e+01
	-1.618933964920373e+01
	-1.601348246533833e+01
	-1.582762233404104e+01
	-1.594008873899357e+01
	-1.606104631570321e+01
	-1.600028664206897e+01
	-1.569779642477103e+01
	-1.566107327120718e+01
	-1.572754954934041e+01
	-1.592324042471148e+01
	-1.616601602123799e+01
	-1.600919718828412e+01
	-1.587958869170355e+01
	-1.599271879437266e+01
	-1.584556032521549e+01
	-1.615972423914658e+01
	-1.575309325353209e+01
	-1.593299616969368e+01
	-1.591156438022942e+01
	-1.597437284963853e+01
	-1.603729866122974e+01
	-1.592414256465965e+01
	-1.572882637053619e+01
	-1.582682387713425e+01
	-1.586278757091285e+01
	-1.603078078795657e+01
	-1.602454999743838e+01
	-1.614098317709171e+01
	-1.582189172296597e+01
	-1.611382047515488e+01
	-1.592346136998277e+01
	-1.596297461592421e+01
	-1.594234308288709e+01
	-1.611455735424454e+01
	-1.587142232185989e+01
	-1.571452208511398e+01
	-1.598116796301563e+01
	-1.603167168170384e+01
	-1.624555470292911e+01
	-1.597517310166913e+01
	-1.607775982513233e+01
	-1.612175129930618e+01
	-1.599288748512019e+01
	-1.623171038582110e+01
	-1.591462744825301e+01
	-1.592081155452311e+01
	-1.586443020820522e+01
	-1.597280221230765e+01
	-1.565074174337010e+01
	-1.589819516807983e+01
	-1.599272584344400e+01
	-1.582038244185568e+01
	-1.584560260449564e+01
	-1.585299807621776e+01
	-1.575284790401946e+01
	-1.591932637785977e+01
	-1.600716217749192e+01
	-1.564133059555254e+01
	-1.568430470949624e+01
	-1.594393718571705e+01
	-1.604078431353894e+01
	-1.613383359737766e+01
	-1.597391923753870e+01
	-1.595815935633109e+01
	-1.588790447006651e+01
	-1.584670862535518e+01
	-1.617496280929245e+01
	-1.592928420395750e+01
	-1.571875930084881e+01
	-1.568275249069813e+01
	-1.576284347633617e+01
	-1.576697821961949e+01
	-1.587714763672919e+01
	-1.600433078940569e+01
	-1.574884760291693e+01
	-1.609306794404452e+01
	-1.604294275795049e+01
	-1.580109150721037e+01
	-1.599843327594232e+01
	-1.584827405523122e+01
	-1.608929124650826e+01
	-1.589708890902764e+01
	-1.617587804149724e+01
	-1.577196466572755e+01
	-1.625116038563388e+01
	-1.609352752825172e+01
	-1.591100161161681e+01
	-1.579895429910691e+01
	-1.598553890998563e+01
	-1.573494959115339e+01
	-1.570208483928588e+01
	-1.600037676038468e+01
	-1.581511112464495e+01
	-1.593076232896503e+01
	-1.590816232869818e+01
	-1.601398861423678e+01

 6	6.000000000000000e-01
	-1.206469553139987e+01
	-1.214246535440672e+01
	-1.202337782248831e+01
	-1.218594713966504e+01
	-1.228420251979289e+01
	-1.209559297837674e+01
	-1.197818588727275e+01
	-1.207486911719746e+01
	-1.219030879900126e+01
	-1.207728498880445e+01
	-1.180629173396862e+01
	-1.184092401869625e+01
	-1.190001902140868e+01
	-1.205872285987178e+01
	-1.222322724664174e+01
	-1.214546260356656e+01
	-1.196786542987451e+01
	-1.213292095681564e+01
	-1.197566485892009e+01
	-1.224184596049717e+01
	-1.189454415601767e+01
	-1.209979642448917e+01
	-1.202920536939954e+01
	-1.210567087150161e+01
	-1.218237403337788e+01
	-1.211893669382927e+01
	-1.197655791766704e+01
	-1.201639320043438e+01
	-1.203537894044346e+01
	-1.213705957398477e+01
	-1.216659495960042e+01
	-1.224834566546770e+01
	-1.197144863622143e+01
	-1.221108783513742e+01
	-1.208528418770507e+01
	-1.208792459253368e+01
	-1.205329710780924e+01
	-1.220963920037758e+01
	-1.197119080467658e+01
	-1.181055250682263e+01
	-1.216296783345408e+01
	-1.215196286770091e+01
	-1.233489595156357e+01
	-1.213227349662305e+01
	-1.219042548942903e+01
	-1.224241228141145e+01
	-1.210136593145047e+01
	-1.237100212310443e+01
	-1.209407767815454e+01
	-1.206621890929239e+01
	-1.200983415591773e+01
	-1.213464573495997e+01
	-1.186091159034770e+01
	-1.207732880821278e+01
	-1.214022037165458e+01
	-1.202964918631470e+01
	-1.201375259329308e+01
	-1.201348903458307e+01
	-1.185125382503347e+01
	-1.205277799192634e+01
	-1.214320207912575e+01
	-1.182387204210082e+01
	-1.184564047690170e+01
	-1.207348628290173e+01
	-1.216686810244169e+01
	-1.224914854194958e+01
	-1.209839878837965e+01
	-1.213417108080485e+01
	-1.212753552487613e+01
	-1.202073950084879e+01
	-1.231591668919936e+01
	-1.210921161486127e+01
	-1.188427784235590e+01
	-1.174921063393447e+01
	-1.188166371879746e+01
	-1.188545025476966e+01
	-1.201933179065796e+01
	-1.216250538636570e+01
	-1.191725627628420e+01
	-1.226409407140080e+01
	-1.223438302906842e+01
	-1.195984099075224e+01
	-1.219558834630782e+01
	-1.200633547252698e+01
	-1.218686518589989e+01
	-1.200409532342021e+01
	-1.228074013601104e+01
	-1.197348535725423e+01
	-1.233309206714779e+01
	-1.223535358287012e+01
	-1.201146701223492e+01
	-1.196254542986930e+01
	-1.217426366121494e+01
	-1.191369375805803e+01
	-1.184470863859555e+01
	-1.209704493956789e+01
	-1.198471645682003e+01
	-1.207073432699748e+01
	-1.198078345302856e+01
	-1.221128719572747e+01

 7	7.000000000000000e-01
	1.861501925253588e+01
	1.854177119518722e+01
	1.824292668996624e+01
	1.785351036766212e+01
	1.866918054137371e+01
	1.885045907148842e+01
	1.853089264512470e+01
	1.870899126413230e+01
	1.864518288178783e+01
	1.902622144317307e+01
	1.867050202720738e+01
	1.838288058253680e+01
	1.855707614001071e+01
	1.862910321142409e+01
	1.898172269779897e+01
	1.866188720468132e+01
	1.886370238764598e+01
	1.872089816706317e+01
	1.877843800465475e+01
	1.881701611545887e+01
	1.862717867493408e+01
	1.852102742124677e+01
	1.865627151283211e+01
	1.846163356375711e+01
	1.869397985980316e+01
	1.837938529774661e+01
	1.802754891676116e+01
	1.844452707987848e+01
	1.841153873553371e+01
	1.864480822523141e+01
	1.852593700955769e+01
	1.863681091017575e+01
	1.843134224193878e+01
	1.874816579230136e+01
	1.839774541550340e+01
	1.878869585515555e+01
	1.895388732024229e+01
	1.869954049983363e+01
	1.907858321782783e+01
	1.900603488012404e+01
	1.828731810119780e+01
	1.867990664448261e+01
	1.868245754284855e+01
	1.842245456942652e+01
	1.854503245679017e+01
	1.861986876732028e+01
	1.890986681642162e+01
	1.838319682083666e+01
	1.856594050937702e+01
	1.849755218597834e+01
	1.900497494619474e+01
	1.844506859671342e+01
	1.837750101620607e+01
	1.822461149567242e+01
	1.851136785494576e+01
	1.835392293697207e+01
	1.841079615732558e+01
	1.857468183847315e+01
	1.902593044891617e+01
	1.858401867900456e+01
	1.829875278553041e+01
	1.877200799918984e+01
	1.867721737594969e+01
	1.857910925500736e+01
	1.864140999914368e+01
	1.872177606820524e+01
	1.864193827172074e+01
	1.849916466787768e+01
	1.798150816243568e+01
	1.869059713826901e+01
	1.854739381744056e+01
	1.831794149335946e+01
	1.864612655651464e+01
	1.893846812203921e+01
	1.891499778732445e+01
	1.887391879872061e+01
	1.870775566139998e+01
	1.856774953224250e+01
	1.844952640440329e+01
	1.838263197465366e+01
	1.820964943900637e+01
	1.882461607614057e+01
	1.847437983044505e+01
	1.862348476762254e+01
	1.884062534260483e+01
	1.866635627489066e+01
	1.875304624592899e+01
	1.838627101943110e+01
	1.893483587668238e+01
	1.862387119482729e+01
	1.879958254479128e+01
	1.834219584701989e+01
	1.807367436738640e+01
	1.841083643356178e+01
	1.866608820451487e+01
	1.884980523605157e+01
	1.859147873406694e+01
	1.861619657850934e+01
	1.920218097852418e+01
	1.823972864940508e+01

 8	7.999999999999999e-01
	4.787002686936842e+01
	4.684117946074158e+01
	4.680051352313800e+01
	4.643890717044052e+01
	4.741250533862493e+01
	4.803221429083452e+01
	4.744232095527275e+01
	4.841017106392662e+01
	4.799896791924453e+01
	4.909226246128949e+01
	4.702741881340697e+01
	4.695215765873127e+01
	4.808031355873329e+01
	4.784970348520375e+01
	4.847082655680075e+01
	4.824205175074540e+01
	4.808827657060967e+01
	4.875402605197380e+01
	4.862350572127129e+01
	4.802160858755893e+01
	4.771857800465266e+01
	4.798618005838213e+01
	4.751043186575298e+01
	4.664553292176075e+01
	4.876502976132125e+01
	4.778755106964950e+01
	4.652381364109317e+01
	4.794757490103007e+01
	4.726856116878395e+01
	4.730863169885905e+01
	4.748231801189571e+01
	4.745721234739602e+01
	4.671979264141002e+01
	4.790032505041171e+01
	4.697438752238541e+01
	4.874196687993643e+01
	4.948326716749030e+01
	4.750674133829053e+01
	4.993782487113654e+01
	4.903301022242848e+01
	4.685486187720898e+01
	4.794410479419923e+01
	4.742813684703062e+01
	4.709876096115384e+01
	4.687321191437292e+01
	4.767148053644997e+01
	4.917591843664083e+01
	4.673597890822570e+01
	4.866275219652224e+01
	4.720517022232873e+01
	5.077816920676334e+01
	4.737528087574083e+01
	4.779121724466344e+01
	4.622674278151573e+01
	4.748249216580695e+01
	4.785886507132306e+01
	4.714200397881608e+01
	4.807347738777417e+01
	4.930988946717314e+01
	4.746530380552986e+01
	4.574255898188692e+01
	4.981086193172155e+01
	4.854991510168138e+01
	4.736332981876063e+01
	4.785983419125576e+01
	4.826850756233081e+01
	4.770026141928710e+01
	4.814535149189863e+01
	4.621515442528607e+01
	4.929702191236984e+01
	4.783641941377892e+01
	4.693615984245324e+01
	4.848332092904455e+01
	4.767900765379839e+01
	4.912249324482300e+01
	4.883096709273047e+01
	4.851693940324074e+01
	4.819334819520500e+01
	4.725136121636331e+01
	4.739711574027591e+01
	4.669714557624685e+01
	4.975012944108216e+01
	4.866510334677719e+01
	4.833357643677090e+01
	4.850307875884419e+01
	4.726957034015282e+01
	4.825593436316842e+01
	4.778813682715306e+01
	4.899018830205990e+01
	4.826451155940112e+01
	4.801977641822300e+01
	4.645558595549269e+01
	4.560774593327331e+01
	4.724963417210932e+01
	4.795606475731916e+01
	4.840568025971098e+01
	4.839225085797886e+01
	4.788773281276018e+01
	5.008112611683062e+01
	4.702048529848479e+01

 9	8.999999999999999e-01
	4.990116600113303e+01
	4.875244049512416e+01
	4.876909683881800e+01
	4.841956596320757e+01
	4.936381046676560e+01
	5.003875379231924e+01
	4.943979259273999e+01
	5.049430238821821e+01
	5.003175992673434e+01
	5.120690039653497e+01
	4.895854996725511e+01
	4.892325040540955e+01
	5.016310405221378e+01
	4.987608273428754e+01
	5.050047348901169e+01
	5.030732402470421e+01
	5.010920421174242e+01
	5.087748765681008e+01
	5.073085496367402e+01
	5.002195419899164e+01
	4.974047923244984e+01
	5.004746763176907e+01
	4.948985852199367e+01
	4.854873231618659e+01
	5.089110823416873e+01
	4.984788883889637e+01
	4.849938560552052e+01
	5.002498834952019e+01
	4.926096404162217e+01
	4.926147993981109e+01
	4.947178866466902e+01
	4.942253842434789e+01
	4.864276594873618e+01
	4.989991963063898e+01
	4.893267075280734e+01
	5.085428032086951e+01
	5.166696764299709e+01
	4.946997830163399e+01
	5.216621878386615e+01
	5.116490058531201e+01
	4.881189376930583e+01
	4.996625143598369e+01
	4.937524244418260e+01
	4.906514810911420e+01
	4.878455593147419e+01
	4.966785375476473e+01
	5.132232760443317e+01
	4.864566856760253e+01
	5.080703527900050e+01
	4.917143990590758e+01
	5.313755899021447e+01
	4.936792056232593e+01
	4.987294944809599e+01
	4.812084595122179e+01
	4.947664830148503e+01
	4.994060203868347e+01
	4.911997311850064e+01
	5.014316935711717e+01
	5.147222283516011e+01
	4.945030990723647e+01
	4.755885465321661e+01
	5.209682049096233e+01
	5.067741148093216e+01
	4.933452079375000e+01
	4.987704344363896e+01
	5.031811901195447e+01
	4.970164075849147e+01
	5.022939027098216e+01
	4.814765861811068e+01
	5.151008499247818e+01
	4.986219038319700e+01
	4.890215584495013e+01
	5.060443048114286e+01
	4.964933361380685e+01
	5.127841685928714e+01
	5.095502285500143e+01
	5.062002979713082e+01
	5.026848346551480e+01
	4.924355356137418e+01
	4.939961768631073e+01
	4.864277344951463e+01
	5.200474474473990e+01
	5.081915788899219e+01
	5.042919556360453e+01
	5.056580992804192e+01
	4.921810117645775e+01
	5.029568341641082e+01
	4.985874299322943e+01
	5.108850013372652e+01
	5.033279524544193e+01
	5.004023285270274e+01
	4.836621161816773e+01
	4.744378150248460e+01
	4.924899655906320e+01
	5.000598365855755e+01
	5.046080255125570e+01
	5.050369732098275e+01
	4.992046737026053e+01
	5.230384534824507e+01
	4.900403187756623e+01

 10	9.999999999999999e-01
	4.997994552770857e+01
	4.882710958719274e+01
	4.884580024036713e+01
	4.849657312858675e+01
	4.943962102037058e+01
	5.011666958404295e+01
	4.951763817871902e+01
	5.057472070577460e+01
	5.011043510007859e+01
	5.128818979711659e+01
	4.903439432605541e+01
	4.900039819541533e+01
	5.024371215996467e+01
	4.995472352454160e+01
	5.057891455108014e+01
	5.038709310440876e+01
	5.018771674697323e+01
	5.095908758849195e+01
	5.081210863505527e+01
	5.009950209204572e+01
	4.981912973240666e+01
	5.012716435958727e+01
	4.956701788182286e+01
	4.862317447898582e+01
	5.097271959070194e+01
	4.992759439012990e+01
	4.857643085939725e+01
	5.010534333117766e+01
	4.933857838188613e+01
	4.933749555950352e+01
	4.954917340032344e+01
	4.949884230864618e+01
	4.871824697200371e+01
	4.997750531440727e+01
	4.900894897178011e+01
	5.093555983331188e+01
	5.175048224678325e+01
	4.954624280007154e+01
	5.225117268081208e+01
	5.124704030857133e+01
	4.888806116109637e+01
	5.004463209339786e+01
	4.945083855303147e+01
	4.914164523017207e+01
	4.885917632371080e+01
	4.974515669580932e+01
	5.140462846992300e+01
	4.872007482457505e+01
	5.088936163029797e+01
	4.924818367737544e+01
	5.322650237965870e+01
	4.944542929463637e+01
	4.995364435174832e+01
	4.819507592734158e+01
	4.955421759895044e+01
	5.002108401949982e+01
	4.919720390195005e+01
	5.022325525520200e+01
	5.155526942488251e+01
	4.952764072542318e+01
	4.763045257651821e+01
	5.218381120691699e+01
	5.075947340596139e+01
	4.941138571144668e+01
	4.995527355150800e+01
	5.039726927881384e+01
	4.977942560010469e+01
	5.030978858037018e+01
	4.822313120615752e+01
	5.159460913598114e+01
	4.994039605347016e+01
	4.897867476128449e+01
	5.068620900862333e+01
	4.972641840698076e+01
	5.136124090286130e+01
	5.103686510846670e+01
	5.070110947510859e+01
	5.034855156461035e+01
	4.932131072112190e+01
	4.947714008000045e+01
	4.871853128731153e+01
	5.209060554795222e+01
	5.090168463616673e+01
	5.051007648582164e+01
	5.064536824448318e+01
	4.929430138802876e+01
	5.037447503841190e+01
	4.993893683064274e+01
	5.116900148821659e+01
	5.041255195797166e+01
	5.011867327484066e+01
	4.844108940678124e+01
	4.751604394801208e+01
	4.932699493732800e+01
	5.008559665783881e+01
	5.054022953753801e+01
	5.058511357294953e+01
	4.999927758765291e+01
	5.238857624318609e+01
	4.908103068715538e+01

 11	1.100000000000000e+00
	4.998796037624408e+01
	4.883483232593532e+01
	4.885370209641486e+01
	4.850449452801023e+01
	4.944742239409226e+01
	5.012462738478359e+01
	4.952561078480421e+01
	5.058285903969521e+01
	5.011841697010495e+01
	5.129639758040297e+01
	4.904220745050792e+01
	4.900828977250695e+01
	5.025188689500250e+01
	4.996273683703704e+01
	5.058686670509233e+01
	5.039518360942667e+01
	5.019574622399438e+01
	5.096732072485393e+01
	5.082033723639871e+01
	5.010738961329515e+01
	4.982713758060543e+01
	5.013522001281264e+01
	4.957490500307777e+01
	4.863087639019128e+01
	5.098092129406832e+01
	4.993566631336498e+01
	4.858439092076151e+01