Title: monte carlo simulation plot
Date: Thu Sep 28 16:53:46  2017
Plotname: monte_carlo
Flags: real
No. Variables: 101
No. Points: 51
Variables:
	0	voltage_sweep	voltage
	1	output_current_0	notype
	2	output_current_1	notype
	3	output_current_2	notype
	4	output_current_3	notype
	5	output_current_4	notype
	6	output_current_5	notype
	7	output_current_6	notype
	8	output_current_7	notype
	9	output_current_8	notype
	10	output_current_9	notype
	11	output_current_10	notype
	12	output_current_11	notype
	13	output_current_12	notype
	14	output_current_13	notype
	15	output_current_14	notype
	16	output_current_15	notype
	17	output_current_16	notype
	18	output_current_17	notype
	19	output_current_18	notype
	20	output_current_19	notype
	21	output_current_20	notype
	22	output_current_21	notype
	23	output_current_22	notype
	24	output_current_23	notype
	25	output_current_24	notype
	26	output_current_25	notype
	27	output_current_26	notype
	28	output_current_27	notype
	29	output_current_28	notype
	30	output_current_29	notype
	31	output_current_30	notype
	32	output_current_31	notype
	33	output_current_32	notype
	34	output_current_33	notype
	35	output_current_34	notype
	36	output_current_35	notype
	37	output_current_36	notype
	38	output_current_37	notype
	39	output_current_38	notype
	40	output_current_39	notype
	41	output_current_40	notype
	42	output_current_41	notype
	43	output_current_42	notype
	44	output_current_43	notype
	45	output_current_44	notype
	46	output_current_45	notype
	47	output_current_46	notype
	48	output_current_47	notype
	49	output_current_48	notype
	50	output_current_49	notype
	51	output_current_50	notype
	52	output_current_51	notype
	53	output_current_52	notype
	54	output_current_53	notype
	55	output_current_54	notype
	56	output_current_55	notype
	57	output_current_56	notype
	58	output_current_57	notype
	59	output_current_58	notype
	60	output_current_59	notype
	61	output_current_60	notype
	62	output_current_61	notype
	63	output_current_62	notype
	64	output_current_63	notype
	65	output_current_64	notype
	66	output_current_65	notype
	67	output_current_66	notype
	68	output_current_67	notype
	69	output_current_68	notype
	70	output_current_69	notype
	71	output_current_70	notype
	72	output_current_71	notype
	73	output_current_72	notype
	74	output_current_73	notype
	75	output_current_74	notype
	76	output_current_75	notype
	77	output_current_76	notype
	78	output_current_77	notype
	79	output_current_78	notype
	80	output_current_79	notype
	81	output_current_80	notype
	82	output_current_81	notype
	83	output_current_82	notype
	84	output_current_83	notype
	85	output_current_84	notype
	86	output_current_85	notype
	87	output_current_86	notype
	88	output_current_87	notype
	89	output_current_88	notype
	90	output_current_89	notype
	91	output_current_90	notype
	92	output_current_91	notype
	93	output_current_92	notype
	94	output_current_93	notype
	95	output_current_94	notype
	96	output_current_95	notype
	97	output_current_96	notype
	98	output_current_97	notype
	99	output_current_98	notype
	100	output_current_99	notype
Values:
 0	0.000000000000000e+00
	-1.604033502502790e+01
	-1.604379325619757e+01
	-1.621963068272688e+01
	-1.588229937612730e+01
	-1.615430620442508e+01
	-1.608261411204193e+01
	-1.591100897711426e+01
	-1.625952484544276e+01
	-1.597076114105205e+01
	-1.584840692140306e+01
	-1.593733562349633e+01
	-1.596816699574900e+01
	-1.595892701901954e+01
	-1.580906286274046e+01
	-1.576601248541771e+01
	-1.595177347402009e+01
	-1.600891496551413e+01
	-1.609898683619768e+01
	-1.605135191924962e+01
	-1.595911989746902e+01
	-1.580397230396554e+01
	-1.583164471363190e+01
	-1.611061849184290e+01
	-1.573004500138125e+01
	-1.594388389547259e+01
	-1.613217936422241e+01
	-1.590365365208100e+01
	-1.635371110907534e+01
	-1.619364311903989e+01
	-1.578145847737865e+01
	-1.605605668400117e+01
	-1.610262463693365e+01
	-1.609207433223647e+01
	-1.602867024162101e+01
	-1.610069966317753e+01
	-1.608699515962169e+01
	-1.604103845923184e+01
	-1.601883213010140e+01
	-1.607777946310734e+01
	-1.610973262018280e+01
	-1.580690044981291e+01
	-1.590973722866301e+01
	-1.606829698517710e+01
	-1.597151676017460e+01
	-1.594409378589272e+01
	-1.642896431108670e+01
	-1.613123634875142e+01
	-1.597841976145986e+01
	-1.623035272328539e+01
	-1.603724305160421e+01
	-1.611870942279886e+01
	-1.608575578767954e+01
	-1.607114060123170e+01
	-1.631536190660830e+01
	-1.618994323027778e+01
	-1.592193153644173e+01
	-1.582029258356153e+01
	-1.567161042143285e+01
	-1.602066389945272e+01
	-1.609987682780067e+01
	-1.590013726053191e+01
	-1.581750941340737e+01
	-1.621986522311133e+01
	-1.626655567751173e+01
	-1.612739885565439e+01
	-1.618880215425454e+01
	-1.602483901192235e+01
	-1.606219420551149e+01
	-1.613580057235782e+01
	-1.609681282116508e+01
	-1.641086689946643e+01
	-1.606529587288398e+01
	-1.606310905278304e+01
	-1.613931356194254e+01
	-1.592406500157409e+01
	-1.632312997571777e+01
	-1.593245547043485e+01
	-1.586690839239477e+01
	-1.594837806382240e+01
	-1.596131772777336e+01
	-1.582865398392839e+01
	-1.603478673577606e+01
	-1.617422059687982e+01
	-1.617585400393583e+01
	-1.608656286651207e+01
	-1.604859844746974e+01
	-1.581428023384437e+01
	-1.592227645804817e+01
	-1.610393411685865e+01
	-1.585510595868097e+01
	-1.616318450785928e+01
	-1.600129594833576e+01
	-1.602400840453861e+01
	-1.617990525126519e+01
	-1.605151780514759e+01
	-1.602053760151668e+01
	-1.600874297359535e+01
	-1.606011963343808e+01
	-1.598263011439139e+01
	-1.617765281319564e+01

 1	1.000000000000000e-01
	-1.604033361335049e+01
	-1.604379184449941e+01
	-1.621962926875894e+01
	-1.588229796646919e+01
	-1.615430479140634e+01
	-1.608261269979658e+01
	-1.591100756710205e+01
	-1.625952343100760e+01
	-1.597075973023772e+01
	-1.584840551211968e+01
	-1.593733421324879e+01
	-1.596816558500758e+01
	-1.595892560830102e+01
	-1.580906145396617e+01
	-1.576601107724592e+01
	-1.595177206349650e+01
	-1.600891355426187e+01
	-1.609898542384425e+01
	-1.605135050746722e+01
	-1.595911848687430e+01
	-1.580397089519949e+01
	-1.583164330455513e+01
	-1.611061707924166e+01
	-1.573004359362615e+01
	-1.594388248505294e+01
	-1.613217795138620e+01
	-1.590365224207110e+01
	-1.635370969344535e+01
	-1.619364170539085e+01
	-1.578145706908319e+01
	-1.605605527217761e+01
	-1.610262322452988e+01
	-1.609207291993572e+01
	-1.602866883013860e+01
	-1.610069825067236e+01
	-1.608699374741596e+01
	-1.604103704752985e+01
	-1.601883071869663e+01
	-1.607777805090045e+01
	-1.610973120752287e+01
	-1.580689904116389e+01
	-1.590973581863970e+01
	-1.606829557318177e+01
	-1.597151534939802e+01
	-1.594409237539104e+01
	-1.642896289446471e+01
	-1.613123493587200e+01
	-1.597841835051443e+01
	-1.623035130920244e+01
	-1.603724163995078e+01
	-1.611870801016237e+01
	-1.608575437548897e+01
	-1.607113918920738e+01
	-1.631536049144081e+01
	-1.618994181663297e+01
	-1.592193012626220e+01
	-1.582029117466288e+01
	-1.567160901436028e+01
	-1.602066248799337e+01
	-1.609987541541195e+01
	-1.590013585061314e+01
	-1.581750800450727e+01
	-1.621986380923134e+01
	-1.626655426299222e+01
	-1.612739744291347e+01
	-1.618880074065763e+01
	-1.602483760044742e+01
	-1.606219279353512e+01
	-1.613579915939810e+01
	-1.609681140878952e+01
	-1.641086548308207e+01
	-1.606529446092760e+01
	-1.606310764083479e+01
	-1.613931214904118e+01
	-1.592406359143623e+01
	-1.632312856043624e+01
	-1.593245406012352e+01
	-1.586690698289415e+01
	-1.594837665324096e+01
	-1.596131631709024e+01
	-1.582865257491535e+01
	-1.603478532410311e+01
	-1.617421918349604e+01
	-1.617585259064320e+01
	-1.608656145422470e+01
	-1.604859703570710e+01
	-1.581427882503419e+01
	-1.592227504784508e+01
	-1.610393270434777e+01
	-1.585510454930684e+01
	-1.616318309464612e+01
	-1.600129453708259e+01
	-1.602400699314069e+01
	-1.617990383779946e+01
	-1.605151639330135e+01
	-1.602053619010542e+01
	-1.600874156235058e+01
	-1.606011822152172e+01
	-1.598262870350797e+01
	-1.617765139981487e+01

 2	2.000000000000000e-01
	-1.604033102162810e+01
	-1.604378925341163e+01
	-1.621962664558609e+01
	-1.588229538901406e+01
	-1.615430219258877e+01
	-1.608261011152818e+01
	-1.591100500516679e+01
	-1.625952082303291e+01
	-1.597075712169727e+01
	-1.584840293505201e+01
	-1.593733163286798e+01
	-1.596816299046377e+01
	-1.595892301922018e+01
	-1.580905885974854e+01
	-1.576600851245695e+01
	-1.595176947454681e+01
	-1.600891098429086e+01
	-1.609898285624607e+01
	-1.605134792033737e+01
	-1.595911590329319e+01
	-1.580396829759940e+01
	-1.583164070785225e+01
	-1.611061452214071e+01
	-1.573004100179895e+01
	-1.594387989491953e+01
	-1.613217536545999e+01
	-1.590364964012456e+01
	-1.635370710309302e+01
	-1.619363910562730e+01
	-1.578145450132705e+01
	-1.605605267495052e+01
	-1.610262063067022e+01
	-1.609207033873611e+01
	-1.602866624338757e+01
	-1.610069564535662e+01
	-1.608699116143006e+01
	-1.604103445305179e+01
	-1.601882812956469e+01
	-1.607777545248145e+01
	-1.610972860588337e+01
	-1.580689647913772e+01
	-1.590973321550448e+01
	-1.606829298138197e+01
	-1.597151275392458e+01
	-1.594408977653847e+01
	-1.642896030565501e+01
	-1.613123233647194e+01
	-1.597841575000135e+01
	-1.623034870581767e+01
	-1.603723904189814e+01
	-1.611870542793186e+01
	-1.608575178716352e+01
	-1.607113658254221e+01
	-1.631535789553797e+01
	-1.618993921352914e+01
	-1.592192754317425e+01
	-1.582028857930666e+01
	-1.567160640838020e+01
	-1.602065989467316e+01
	-1.609987286242063e+01
	-1.590013323970655e+01
	-1.581750541003660e+01
	-1.621986122185827e+01
	-1.626655166848048e+01
	-1.612739483770451e+01
	-1.618879812669351e+01
	-1.602483503628663e+01
	-1.606219020578680e+01
	-1.613579657975351e+01
	-1.609680880832555e+01
	-1.641086286661212e+01
	-1.606529185333411e+01
	-1.606310503505644e+01
	-1.613930958584153e+01
	-1.592406103202008e+01
	-1.632312595092323e+01
	-1.593245146461066e+01
	-1.586690442347746e+01
	-1.594837406124375e+01
	-1.596131373434105e+01
	-1.582864998207098e+01
	-1.603478271006259e+01
	-1.617421656830733e+01
	-1.617585000821401e+01
	-1.608655886531518e+01
	-1.604859442806612e+01
	-1.581427623145938e+01
	-1.592227246846145e+01
	-1.610393009605190e+01
	-1.585510195309700e+01
	-1.616318050964028e+01
	-1.600129192441166e+01
	-1.602400442311515e+01
	-1.617990121766084e+01
	-1.605151380676842e+01
	-1.602053359722886e+01
	-1.600873896498679e+01
	-1.606011561406939e+01
	-1.598262613508959e+01
	-1.617764883341158e+01

 3	3.000000000000000e-01
	-1.604027684247013e+01
	-1.604373510497420e+01
	-1.621957111478971e+01
	-1.588224177905743e+01
	-1.615424774435096e+01
	-1.608255611688596e+01
	-1.591095212733193e+01
	-1.625946601518430e+01
	-1.597070212744880e+01
	-1.584834932804065e+01
	-1.593727791435865e+01
	-1.596810863967585e+01
	-1.595886892020867e+01
	-1.580900443636116e+01
	-1.576595542159900e+01
	-1.595171537107798e+01
	-1.600885779189355e+01
	-1.609892982231140e+01
	-1.605129395840485e+01
	-1.595906205269140e+01
	-1.580391371738244e+01
	-1.583158618275353e+01
	-1.611056198362301e+01
	-1.572998664372944e+01
	-1.594382573390610e+01
	-1.613212150757809e+01
	-1.590359491425891e+01
	-1.635365316467242e+01
	-1.619358464239173e+01
	-1.578140128001571e+01
	-1.605599824871977e+01
	-1.610256638443324e+01
	-1.609201667469494e+01
	-1.602861228675687e+01
	-1.610064087276233e+01
	-1.608693727097369e+01
	-1.604098014842245e+01
	-1.601877405806232e+01
	-1.607772098577346e+01
	-1.610967401225185e+01
	-1.580684353810622e+01
	-1.590967843431295e+01
	-1.606823881315679e+01
	-1.597145836108582e+01
	-1.594403521425422e+01
	-1.642890648276743e+01
	-1.613117785552271e+01
	-1.597836113214073e+01
	-1.623029409520392e+01
	-1.603718456925160e+01
	-1.611865172997499e+01
	-1.608569778734439e+01
	-1.607108172697162e+01
	-1.631530367857392e+01
	-1.618988459586337e+01
	-1.592187369680744e+01
	-1.582023410918216e+01
	-1.567155136523943e+01
	-1.602060563234908e+01
	-1.609982050612251e+01
	-1.590007809488560e+01
	-1.581745098084125e+01
	-1.621980734256177e+01
	-1.626649748717757e+01
	-1.612734008504110e+01
	-1.618874300545201e+01
	-1.602478212458040e+01
	-1.606213622433003e+01
	-1.613574301487479e+01
	-1.609675425794479e+01
	-1.641080775347647e+01
	-1.606523695265347e+01
	-1.606305021919069e+01
	-1.613925677932488e+01
	-1.592400827879568e+01
	-1.632307111044437e+01
	-1.593239704869972e+01
	-1.586685164072626e+01
	-1.594831981943902e+01
	-1.596125992582695e+01
	-1.582859563330660e+01
	-1.603472749871026e+01
	-1.617416138153571e+01
	-1.617579633014537e+01
	-1.608650484390975e+01
	-1.604853951778187e+01
	-1.581422184023779e+01
	-1.592221879386599e+01
	-1.610387518945840e+01
	-1.585504746322727e+01
	-1.616312670862273e+01
	-1.600123675847745e+01
	-1.602395123534269e+01
	-1.617984580453568e+01
	-1.605145987518532e+01
	-1.602047935353249e+01
	-1.600868450639212e+01
	-1.606006071867387e+01
	-1.598257299721117e+01
	-1.617759590142865e+01

 4	4.000000000000000e-01
	-1.603783560138761e+01
	-1.604129531868771e+01
	-1.621706639096547e+01
	-1.587982723267242e+01
	-1.615179387673325e+01
	-1.608012355804373e+01
	-1.590857200597031e+01
	-1.625699530272506e+01
	-1.596822253910997e+01
	-1.584593493001956e+01
	-1.593485828028414e+01
	-1.596565930402372e+01
	-1.595643143287405e+01
	-1.580655161582862e+01
	-1.576356523463674e+01
	-1.594927763186083e+01
	-1.600646294374377e+01
	-1.609654245345421e+01
	-1.604886293843073e+01
	-1.595663622829659e+01
	-1.580145353108554e+01
	-1.582912858515045e+01
	-1.610819790928354e+01
	-1.572753687404388e+01
	-1.594138531507715e+01
	-1.612969544596362e+01
	-1.590112791787721e+01
	-1.635122340214222e+01
	-1.619113010830044e+01
	-1.577900497831840e+01
	-1.605354540251004e+01
	-1.610012200183058e+01
	-1.608959969467914e+01
	-1.602618154278109e+01
	-1.609817171257630e+01
	-1.608450961852101e+01
	-1.603853301789843e+01
	-1.601633787071198e+01
	-1.607526621049556e+01
	-1.610721332275062e+01
	-1.580446041496204e+01
	-1.590720880268123e+01
	-1.606579810489346e+01
	-1.596900702857898e+01
	-1.594157590678015e+01
	-1.642648219004293e+01
	-1.612872246340291e+01
	-1.597589923758250e+01
	-1.622783265630426e+01
	-1.603472953311064e+01
	-1.611623314705863e+01
	-1.608326498268102e+01
	-1.606860866905106e+01
	-1.631286078283583e+01
	-1.618742280312423e+01
	-1.591944806112598e+01
	-1.581777910481458e+01
	-1.566906934252082e+01
	-1.601816047785866e+01
	-1.609746503353189e+01
	-1.589759137182076e+01
	-1.581499789879307e+01
	-1.621738028934282e+01
	-1.626405624531110e+01
	-1.612487195372608e+01
	-1.618625753541762e+01
	-1.602240052110846e+01
	-1.605970430432080e+01
	-1.613333068812120e+01
	-1.609429561232827e+01
	-1.640832275806104e+01
	-1.606276177380615e+01
	-1.606057906383615e+01
	-1.613688012196938e+01
	-1.592163407353324e+01
	-1.632059890551130e+01
	-1.592994461408884e+01
	-1.586447599176947e+01
	-1.594587558065595e+01
	-1.595883608891238e+01
	-1.582614633884775e+01
	-1.603223770680892e+01
	-1.617167283907048e+01
	-1.617337869536617e+01
	-1.608407105870030e+01
	-1.604606391936403e+01
	-1.581177055403266e+01
	-1.591980122703988e+01
	-1.610139979691934e+01
	-1.585259151055011e+01
	-1.616070328438899e+01
	-1.599874910628888e+01
	-1.602155661363143e+01
	-1.617734659031996e+01
	-1.604903028596470e+01
	-1.601803508161005e+01
	-1.600623011849222e+01
	-1.605758581065990e+01
	-1.598018068501163e+01
	-1.617521338496613e+01

 5	5.000000000000000e-01
	-1.592492336422909e+01
	-1.592844823946872e+01
	-1.610121833610693e+01
	-1.576815802949997e+01
	-1.603829567081095e+01
	-1.596761075059289e+01
	-1.579848868235554e+01
	-1.614270682980143e+01
	-1.585355018134590e+01
	-1.573427105025753e+01
	-1.582295205457305e+01
	-1.585238071201976e+01
	-1.584369418224459e+01
	-1.569312646528141e+01
	-1.565302804925897e+01
	-1.583653982186878e+01
	-1.589568770248165e+01
	-1.598610589699993e+01
	-1.593641911499515e+01
	-1.584444031652371e+01
	-1.568768897248637e+01
	-1.571548472592866e+01
	-1.599883596371347e+01
	-1.561425778561692e+01
	-1.582851803594953e+01
	-1.601746499620019e+01
	-1.578704180143546e+01
	-1.623880682760534e+01
	-1.607759123191432e+01
	-1.566817991566208e+01
	-1.594009488330548e+01
	-1.598706178142275e+01
	-1.597779490964530e+01
	-1.591374594633916e+01
	-1.598397994759809e+01
	-1.597222013748332e+01
	-1.592534577106316e+01
	-1.590366079084923e+01
	-1.596173648521534e+01
	-1.599339810967640e+01
	-1.569424255897285e+01
	-1.579300732062983e+01
	-1.595290596222490e+01
	-1.585563954558452e+01
	-1.582784649870842e+01
	-1.631430772873041e+01
	-1.601515294279872e+01
	-1.586204119094399e+01
	-1.611397112444619e+01
	-1.592118137069581e+01
	-1.600435828380088e+01
	-1.597074037677647e+01
	-1.595423582879742e+01
	-1.619984719158900e+01
	-1.607355130033832e+01
	-1.580726410222055e+01
	-1.570425022632512e+01
	-1.555431581172363e+01
	-1.590506849776169e+01
	-1.598849024596999e+01
	-1.578260388342755e+01
	-1.570155755052144e+01
	-1.610510351073335e+01
	-1.615112261752994e+01
	-1.601070488225038e+01
	-1.607129594068148e+01
	-1.591222487840984e+01
	-1.594721613591148e+01
	-1.602174657268409e+01
	-1.598057074691840e+01
	-1.629336208968041e+01
	-1.594829117813621e+01
	-1.594628424591433e+01
	-1.602693360024609e+01
	-1.581181037298171e+01
	-1.620623418516323e+01
	-1.581653088890370e+01
	-1.575459632348448e+01
	-1.583283953285179e+01
	-1.584673017208238e+01
	-1.571287943249094e+01
	-1.591709648586697e+01
	-1.605656625884089e+01
	-1.606154299040591e+01
	-1.597149415805072e+01
	-1.593156523229833e+01
	-1.569841145954929e+01
	-1.580798803020202e+01
	-1.598690328077010e+01
	-1.573902386982997e+01
	-1.604860421631453e+01
	-1.588370543298952e+01
	-1.591078836520490e+01
	-1.606175736953411e+01
	-1.593665083183480e+01
	-1.590498217742534e+01
	-1.589271384974509e+01
	-1.594312118236064e+01
	-1.586952692764490e+01
	-1.606498831226256e+01

 6	6.000000000000000e-01
	-1.206469553139987e+01
	-1.206857676330423e+01
	-1.215392134798719e+01
	-1.195095877406480e+01
	-1.215895078208276e+01
	-1.211735136529582e+01
	-1.202325232873618e+01
	-1.223210959178316e+01
	-1.195109830308382e+01
	-1.191624340227487e+01
	-1.199720753439953e+01
	-1.198706835723358e+01
	-1.199000816594551e+01
	-1.183427989475458e+01
	-1.187315518498070e+01
	-1.199030255632707e+01
	-1.209227927932173e+01
	-1.218721270588966e+01
	-1.208698457508945e+01
	-1.200793122975187e+01
	-1.181965236887672e+01
	-1.185141000421608e+01
	-1.222932974415889e+01
	-1.176333882837084e+01
	-1.197470470234297e+01
	-1.216292761631379e+01
	-1.190457463124923e+01
	-1.236708714224269e+01
	-1.219026090579113e+01
	-1.187653426524570e+01
	-1.206297864613773e+01
	-1.212042207000642e+01
	-1.213976329435229e+01
	-1.206127095422294e+01
	-1.209369824062232e+01
	-1.212612796403655e+01
	-1.205538054328799e+01
	-1.205134579855348e+01
	-1.208881092994907e+01
	-1.210393646234581e+01
	-1.191869840772866e+01
	-1.191167567448778e+01
	-1.209006418399469e+01
	-1.199022633564114e+01
	-1.195620912628457e+01
	-1.244194602879240e+01
	-1.213310117878502e+01
	-1.198079618760040e+01
	-1.221467496454656e+01
	-1.204378576369531e+01
	-1.216683850034165e+01
	-1.211987494880535e+01
	-1.205829012258078e+01
	-1.231824617793583e+01
	-1.217845496919643e+01
	-1.197331900659813e+01
	-1.184057552237630e+01
	-1.167171364336769e+01
	-1.204051050562848e+01
	-1.222272486234141e+01
	-1.188099577974347e+01
	-1.184023094645214e+01
	-1.224825085076137e+01
	-1.227457998459955e+01
	-1.210556751761967e+01
	-1.214758841990485e+01
	-1.211713264599721e+01
	-1.209447261918330e+01
	-1.219345709350400e+01
	-1.209093031229061e+01
	-1.235429229073189e+01
	-1.204971607351579e+01
	-1.204604979238300e+01
	-1.223837071551684e+01
	-1.203434496515826e+01
	-1.228794702717749e+01
	-1.195302543100137e+01
	-1.198348585340145e+01
	-1.197930381696466e+01
	-1.201147729294367e+01
	-1.185538413460928e+01
	-1.200247267683012e+01
	-1.212679869316358e+01
	-1.222183607742064e+01
	-1.211434493195709e+01
	-1.202648953903177e+01
	-1.183820617255189e+01
	-1.198349625958290e+01
	-1.207668309165497e+01
	-1.187739700148995e+01
	-1.220418659904817e+01
	-1.197108631855614e+01
	-1.210517431577009e+01
	-1.212503077221337e+01
	-1.208790671718365e+01
	-1.204037435539738e+01
	-1.201763608892936e+01
	-1.204048082698958e+01
	-1.207285297826404e+01
	-1.226266753641637e+01

 7	7.000000000000000e-01
	1.861501925253588e+01
	1.856177886830046e+01
	1.904390334696045e+01
	1.845307541842269e+01
	1.881775342415157e+01
	1.865719141233909e+01
	1.833779682984882e+01
	1.879471482193266e+01
	1.879437424828434e+01
	1.833914332788308e+01
	1.852026293146555e+01
	1.864498806016672e+01
	1.847087857411546e+01
	1.864594366581404e+01
	1.830811531793371e+01
	1.872009183339962e+01
	1.829243851452189e+01
	1.829958606242911e+01
	1.852360290627363e+01
	1.850056793128505e+01
	1.866684177434625e+01
	1.875125848764517e+01
	1.823865339932063e+01
	1.857532942681479e+01
	1.855763358391574e+01
	1.830178455167333e+01
	1.873473782542830e+01
	1.840805544959312e+01
	1.868063428035193e+01
	1.821297692298510e+01
	1.860882809263454e+01
	1.868572785857888e+01
	1.834346813347593e+01
	1.834320897563726e+01
	1.906411534510439e+01
	1.856270597188648e+01
	1.855770499168387e+01
	1.859734509304119e+01
	1.892425787223855e+01
	1.870521173852407e+01
	1.821237556721955e+01
	1.891278981969042e+01
	1.855972489593794e+01
	1.874584774912570e+01
	1.885141539143011e+01
	1.829975155591021e+01
	1.875861406433536e+01
	1.872054744936402e+01
	1.867629376421822e+01
	1.866704368172478e+01
	1.850747490298236e+01
	1.864348217130903e+01
	1.895924333945907e+01
	1.860990918550897e+01
	1.875418210350456e+01
	1.849820179309244e+01
	1.860373211397279e+01
	1.885216484731202e+01
	1.860560617302949e+01
	1.791085456822091e+01
	1.899101114033205e+01
	1.859283344666786e+01
	1.847388077579803e+01
	1.858687901505384e+01
	1.853131551404574e+01
	1.887654608989324e+01
	1.798011539574583e+01
	1.848419905947230e+01
	1.858611854808429e+01
	1.854986520139870e+01
	1.885466422570358e+01
	1.895528507966824e+01
	1.869467165582464e+01
	1.824136817867603e+01
	1.799257519521263e+01
	1.875587921508960e+01
	1.877421802899224e+01
	1.816404417460809e+01
	1.878090258402872e+01
	1.846129945093674e+01
	1.857104062736880e+01
	1.902535839032275e+01
	1.876790292127881e+01
	1.851239750057763e+01
	1.847832843547083e+01
	1.870015926512509e+01
	1.853026240996074e+01
	1.844609130144091e+01
	1.865191069431306e+01
	1.882068365734530e+01
	1.860918767360058e+01
	1.890780433700697e+01
	1.823316701171949e+01
	1.905443108021774e+01
	1.848765867433926e+01
	1.855426747021734e+01
	1.864055949380116e+01
	1.878442137285499e+01
	1.834051524066292e+01
	1.812931109891265e+01

 8	7.999999999999999e-01
	4.787002686936842e+01
	4.751744538511242e+01
	4.869154546329771e+01
	4.770832021838767e+01
	4.896271789212223e+01
	4.851654210141790e+01
	4.816523138060484e+01
	4.806191249677202e+01
	4.782113577723215e+01
	4.682374965486780e+01
	4.804516064294140e+01
	4.782300118870544e+01
	4.691461789000675e+01
	4.774958251836466e+01
	4.757093341531115e+01
	4.888848341590047e+01
	4.717320649716479e+01
	4.750952226315955e+01
	4.756004923200869e+01
	4.762192526777298e+01
	4.761981048297087e+01
	4.837144449597149e+01
	4.794263132457579e+01
	4.736218594919958e+01
	4.750195353418469e+01
	4.603073714450588e+01
	4.784774928258361e+01
	4.662500287914724e+01
	4.780661349241971e+01
	4.660804273594520e+01
	4.738906811392781e+01
	4.829764863472419e+01
	4.669324646422542e+01
	4.620752285178801e+01
	5.030884726502525e+01
	4.799232875355783e+01
	4.720089592576216e+01
	4.793499375877894e+01
	4.976940599065318e+01
	4.776790165080274e+01
	4.709318757051572e+01
	4.916357314864297e+01
	4.746369236532397e+01
	4.853995216328024e+01
	4.905183751826051e+01
	4.599986230688786e+01
	4.839264407742776e+01
	4.790578891450130e+01
	4.750479719861359e+01
	4.774342164474040e+01
	4.789597683688470e+01
	4.842614938136133e+01
	4.934075972038598e+01
	4.766995192256744e+01
	4.808561416682778e+01
	4.760526788024949e+01
	4.734617682338597e+01
	4.829674410337459e+01
	4.764360395344034e+01
	4.573469583649637e+01
	4.911105176293654e+01
	4.732539805765054e+01
	4.727949647900324e+01
	4.758015814208376e+01
	4.622531920242191e+01
	4.813812817974082e+01
	4.529081103158101e+01
	4.720195076178359e+01
	4.873653228280646e+01
	4.670264913876866e+01
	4.791782361361957e+01
	4.922294868215215e+01
	4.734933084803328e+01
	4.745525819633096e+01
	4.570047776796567e+01
	4.766814159918876e+01
	4.872845361404887e+01
	4.696165248135646e+01
	4.908368672772536e+01
	4.737337492652621e+01
	4.730233816080980e+01
	4.918616200271281e+01
	4.721424715796683e+01
	4.797510041474116e+01
	4.707463430166294e+01
	4.723408568415287e+01
	4.693097285036070e+01
	4.750818772282251e+01
	4.684393886371464e+01
	4.898309211511172e+01
	4.849070655835334e+01
	4.836059121312347e+01
	4.673107617017081e+01
	4.900120225166871e+01
	4.731989795619796e+01
	4.729542930990645e+01
	4.758642885027619e+01
	4.789388139145940e+01
	4.767741840976026e+01
	4.634332489050210e+01

 9	8.999999999999999e-01
	4.990116600113303e+01
	4.951210120229344e+01
	5.074386865023538e+01
	4.975725860344546e+01
	5.109358690267590e+01
	5.062127217495421e+01
	5.029204507982904e+01
	5.007238821686164e+01
	4.982133794145458e+01
	4.878060069329483e+01
	5.012271212163342e+01
	4.984838615643802e+01
	4.885388620840649e+01
	4.977668089936184e+01
	4.963526283178516e+01
	5.104194985986453e+01
	4.917607021851865e+01
	4.954829740073517e+01
	4.956589677244406e+01
	4.964624915248633e+01
	4.962701752642615e+01
	5.045981053851793e+01
	5.004171070649140e+01
	4.935711913032156e+01
	4.950243772533120e+01
	4.788084779046934e+01
	4.986580702963493e+01
	4.851673434443583e+01
	4.980797823475585e+01
	4.856323276357320e+01
	4.935904886005754e+01
	5.036773562320760e+01
	4.862106963227479e+01
	4.807957212035031e+01
	5.258145571977052e+01
	5.004465098073919e+01
	4.915649448547564e+01
	4.997893399734304e+01
	5.199530797054274e+01
	4.976598029767901e+01
	4.910864022824062e+01
	5.132326303143037e+01
	4.945023672160214e+01
	5.064119327728945e+01
	5.120441519656255e+01
	4.782759839641749e+01
	5.046037035108170e+01
	4.992836737112857e+01
	4.947164418466586e+01
	4.974999532420012e+01
	4.994286115664134e+01
	5.052145276372007e+01
	5.150344384072561e+01
	4.966241948732137e+01
	5.011052456015400e+01
	4.963035198529696e+01
	4.932795162507898e+01
	5.037015698250076e+01
	4.964861348793131e+01
	4.761154390549181e+01
	5.125083430723183e+01
	4.930647996971682e+01
	4.925142919085781e+01
	4.956850740347631e+01
	4.806408264910563e+01
	5.014968289500497e+01
	4.710745685335224e+01
	4.916807554207551e+01
	5.087850567173330e+01
	4.859868185792089e+01
	4.989552132320589e+01
	5.137110626109144e+01
	4.929995520482512e+01
	4.949372112533569e+01
	4.757201652069794e+01
	4.963621179722335e+01
	5.085262243682809e+01
	4.896379621934571e+01
	5.125256484074487e+01
	4.937200720446619e+01
	4.928328072161157e+01
	5.131943658874866e+01
	4.913408108389284e+01
	5.002733558532246e+01
	4.902907890113575e+01
	4.917049911613709e+01
	4.887275761561089e+01
	4.952950898758556e+01
	4.874082300458282e+01
	5.113891440268155e+01
	5.059443561600677e+01
	5.040871190203629e+01
	4.868624693139123e+01
	5.109460790231022e+01
	4.930109519101352e+01
	4.926483270384831e+01
	4.957945697510942e+01
	4.989873133068631e+01
	4.973415225406799e+01
	4.825578336975491e+01

 10	9.999999999999999e-01
	4.997994552770857e+01
	4.958973547758009e+01
	5.082312131650579e+01
	4.983676425386076e+01
	5.117538365895932e+01
	5.070228257719186e+01
	5.037395733347463e+01
	5.015030234006007e+01
	4.989921910197866e+01
	4.885722128464348e+01
	5.020308777243941e+01
	4.992707361441088e+01
	4.892982998670585e+01
	4.985556460788077e+01
	4.971537838375436e+01
	5.112465419915370e+01
	4.925380055077394e+01
	4.962709810682694e+01
	4.964387594022885e+01
	4.972491925029414e+01
	4.970526445231425e+01
	5.054057933286551e+01
	5.012252510795895e+01
	4.943508659211427e+01
	4.958036549323103e+01
	4.795354533897623e+01
	4.994430159823624e+01
	4.859057174426140e+01
	4.988566056094413e+01
	4.863991524689914e+01
	4.943590376193996e+01
	5.044768504567520e+01
	4.869631818707058e+01
	4.815309293427544e+01
	5.266760835138948e+01
	5.012405746628801e+01
	4.923289169518288e+01
	5.005813121343547e+01
	5.208006500817619e+01
	4.984361596089191e+01
	4.918719032964089e+01
	5.140619403048439e+01
	4.952759814848087e+01
	5.072224833024662e+01
	5.128706599369254e+01
	4.789928613895095e+01
	5.054017607187296e+01
	5.000693083980983e+01
	4.954803071766203e+01
	4.982800708391569e+01
	5.002206596824276e+01
	5.060220983591233e+01
	5.158629343991896e+01
	4.973952915695415e+01
	5.018893699243601e+01
	4.970906277980009e+01
	4.940540414521250e+01
	5.045063662631551e+01
	4.972657720414591e+01
	4.768510999029130e+01
	5.133316115588006e+01
	4.938390434931476e+01
	4.932799267830086e+01
	4.964554377965842e+01
	4.813644779927026e+01
	5.022768519628338e+01
	4.717913869335906e+01
	4.924478033455419e+01
	5.096060362551793e+01
	4.867291802309430e+01
	4.997208754940257e+01
	5.145351318119824e+01
	4.937618425763104e+01
	4.957245349698351e+01
	4.764559491773698e+01
	4.971254228824520e+01
	5.093442964777616e+01
	4.904184281385137e+01
	5.133570731918622e+01
	4.944983922061286e+01
	4.936069350421631e+01
	5.140138212023070e+01
	4.920902238025244e+01
	5.010666433213739e+01
	4.910518409829563e+01
	4.924629731728789e+01
	4.894895309357279e+01
	4.960809880011004e+01
	4.881507477460021e+01
	5.122176883371539e+01
	5.067535376282604e+01
	5.048805134247515e+01
	4.876244458104629e+01
	5.117518092658825e+01
	4.937828437429538e+01
	4.934168985726897e+01
	4.965708421004820e+01
	4.997667594091351e+01
	4.981381503157309e+01
	4.833043582420198e+01

 11	1.100000000000000e+00
	4.998796037624408e+01
	4.959766739236147e+01
	5.083118287939330e+01
	4.984484319546162e+01
	5.118365659986837e+01
	5.071044152637411e+01
	5.038220273040020e+01
	5.015825053073014e+01
	4.990718797987694e+01
	4.886506001226849e+01
	5.021126596707895e+01
	4.993510398062072e+01
	4.893760445616449e+01
	4.986360769237209e+01
	4.972350920799139e+01
	5.113298951854608e+01
	4.926175726547533e+01
	4.963513409736125e+01
	4.965183068202953e+01
	4.973294579817301e+01
	4.971324604001791e+01
	5.054875884763780e+01
	5.013063423081741e+01
	4.944307832053995e+01
	4.958833690723340e+01
	4.796113208631839e+01
	4.995230350299248e+01